[Molden Format]
made by pyscf v[2.0.1]
[Atoms] (AU)
He   1   2     0.00000000000000     0.00000000000000     0.00000000000000
He   2   2     2.72196661208405     0.00000000000000     0.00000000000000
He   3   2     0.00000000000000     2.72196661208405     0.00000000000000
He   4   2     2.72196661208405     2.72196661208405     0.00000000000000
He   5   2     1.36098330604203     1.36098330604203     1.92472105279775
He   6   2     1.36098330604203     1.36098330604203    -1.92472105279775
[GTO]
1 0
 s    3 1.00
                 38.36   0.040176075383249
                  5.77    0.26136807476949
                  1.24    0.79307123949544
 s    1 1.00
                0.2976                   1
 s    1 1.00
               0.07255                   1
 p    1 1.00
                 1.275                   1
 p    1 1.00
                0.2473                   1

2 0
 s    3 1.00
                 38.36   0.040176075383249
                  5.77    0.26136807476949
                  1.24    0.79307123949544
 s    1 1.00
                0.2976                   1
 s    1 1.00
               0.07255                   1
 p    1 1.00
                 1.275                   1
 p    1 1.00
                0.2473                   1

3 0
 s    3 1.00
                 38.36   0.040176075383249
                  5.77    0.26136807476949
                  1.24    0.79307123949544
 s    1 1.00
                0.2976                   1
 s    1 1.00
               0.07255                   1
 p    1 1.00
                 1.275                   1
 p    1 1.00
                0.2473                   1

4 0
 s    3 1.00
                 38.36   0.040176075383249
                  5.77    0.26136807476949
                  1.24    0.79307123949544
 s    1 1.00
                0.2976                   1
 s    1 1.00
               0.07255                   1
 p    1 1.00
                 1.275                   1
 p    1 1.00
                0.2473                   1

5 0
 s    3 1.00
                 38.36   0.040176075383249
                  5.77    0.26136807476949
                  1.24    0.79307123949544
 s    1 1.00
                0.2976                   1
 s    1 1.00
               0.07255                   1
 p    1 1.00
                 1.275                   1
 p    1 1.00
                0.2473                   1

6 0
 s    3 1.00
                 38.36   0.040176075383249
                  5.77    0.26136807476949
                  1.24    0.79307123949544
 s    1 1.00
                0.2976                   1
 s    1 1.00
               0.07255                   1
 p    1 1.00
                 1.275                   1
 p    1 1.00
                0.2473                   1

[5d]
[7f]
[9g]

[MO]
 Sym= A
 Ene=               0
 Spin= Alpha
 Occup=    1.00000
   1       1.2181024006572
   2     -0.53410390179676
   3      0.48931858317774
   4    -0.076358309749147
   5    -0.076357111378554
   6    1.5720205684451e-06
   7      0.21800847346696
   8      0.21800829913398
   9    1.4829175127217e-06
  10    -0.012633385914851
  11    -0.007155902088102
  12     -0.10076657302978
  13    -0.0090407834736656
  14    -0.0097911040915323
  15    -2.271594356468e-09
  16     0.018184314200332
  17     0.010786964851766
  18    -3.3569335685775e-08
  19    -0.012632667575916
  20    -0.0071553391818646
  21     -0.10076522592611
  22    -0.0097911780990101
  23    -0.0090406529428325
  24    -1.3891710569561e-09
  25      0.01078712390857
  26     0.018184084551051
  27    1.8978790566212e-07
  28    0.0098864424164768
  29    -0.077915069646692
  30      0.10598818603547
  31    0.0063554072953108
  32    0.0063554139640622
  33    -5.6017708699243e-08
  34    0.0078361720587924
  35    0.0078363090361683
  36    -5.5170212960722e-08
  37    -0.012623583463756
  38    -0.0071757931130017
  39     -0.10076922376366
  40    -0.0094158452335825
  41    -0.0094158319105925
  42    0.00052927088148935
  43     0.014485887463666
  44     0.014485816929007
  45     0.005237455200515
  46     -0.01262407057109
  47    -0.0071744852665254
  48     -0.10076717883045
  49    -0.0094158915056574
  50    -0.0094159011369094
  51    -0.0005292859872344
  52     0.014485280354068
  53     0.014485035367542
  54    -0.0052367741594424
 Sym= A
 Ene=               1
 Spin= Alpha
 Occup=    1.00000
   1     -0.91396568733378
   2       2.6857681959454
   3       2.0081995500874
   4     -0.36003289704398
   5     -0.36003222772797
   6    9.9099859818815e-07
   7        1.621373192006
   8       1.6213729742213
   9    1.0189150924039e-06
  10     0.038372431226738
  11     -0.77268226324543
  12     -0.53120170641419
  13      0.12531425853689
  14    -0.018331089019311
  15    5.0847228061075e-09
  16      0.50766816146965
  17     0.022780154132111
  18    -5.0582059646033e-08
  19     0.038372910604659
  20     -0.77268194150276
  21     -0.53120102595521
  22    -0.018331102532945
  23      0.12531427561309
  24    3.7282275789231e-09
  25      0.02278019345968
  26      0.50766805125215
  27     6.12588166428e-08
  28    0.0088054733673691
  29      0.14363242976291
  30      0.42002971050598
  31    -0.016403905082057
  32    -0.016403857593542
  33    -8.1269593338304e-09
  34     -0.06648059932781
  35    -0.066480580964184
  36    -9.3280149293861e-08
  37     0.038362279012819
  38     -0.77266015008105
  39     -0.53119617894087
  40     0.053491639958072
  41     0.053491669940979
  42      0.10157408890538
  43      0.26522450692822
  44      0.26522444775108
  45      0.34286056057428
  46     0.038362202091254
  47     -0.77265945650616
  48     -0.53119509686374
  49     0.053491593640375
  50     0.053491611561048
  51     -0.10157402570925
  52      0.26522406823249
  53      0.26522392960548
  54      -0.3428602558121
 Sym= A
 Ene=               2
 Spin= Alpha
 Occup=    1.00000
   1      0.23248210514654
   2      -1.1864699333334
   3       3.5356944885916
   4     -0.18654910700168
   5     -0.18654940291369
   6    -2.3702278053034e-07
   7      0.54344463541459
   8      0.54344416558141
   9    -1.9702991904763e-07
  10    -0.0082740932238791
  11     -0.18091079886714
  12     -0.78746088285812
  13     0.011625607288529
  14    -0.018137756500167
  15    3.8103231490227e-10
  16     0.075482368048544
  17     0.087409590097264
  18    1.5436099691971e-08
  19    -0.0082742442855808
  20     -0.18091065044924
  21      -0.7874610772107
  22    -0.018137735332328
  23     0.011625539659259
  24    1.3429045931005e-09
  25     0.087409427137067
  26     0.075482230293017
  27    -3.9994886262116e-08
  28     0.011917358029015
  29     -0.21602467217885
  30      0.83042728700015
  31     0.023581077951872
  32     0.023581062101365
  33    1.3067414738187e-08
  34     0.026408518884762
  35     0.026408545810318
  36    1.2886469940936e-08
  37    -0.0082733781887188
  38     -0.18091223202474
  39     -0.78746166000555
  40    -0.0032561009615992
  41    -0.0032561101689465
  42     0.021045733164618
  43     0.081445831874413
  44      0.08144586743372
  45    -0.0084333318390103
  46    -0.0082732609916128
  47     -0.18091228666695
  48      -0.7874620583662
  49    -0.0032561003109009
  50    -0.003256102610133
  51    -0.021045721867435
  52     0.081445919638897
  53     0.081445990423295
  54    0.0084332066436042
 Sym= A
 Ene=               3
 Spin= Alpha
 Occup=    1.00000
   1    -0.056079402548439
   2      0.15924722949851
   3      0.40089901694258
   4       1.0327465143291
   5    -0.047533157306487
   6    7.2792433196906e-08
   7    -0.030487359169098
   8      0.22540689995959
   9    6.388377705691e-08
  10     0.047395203788574
  11       -0.156913627782
  12    -0.092358864430093
  13     0.038350344822362
  14    0.0047938228256632
  15    2.1299274864086e-10
  16    -0.014867318732436
  17     -0.03774479425287
  18    -9.4345335867461e-10
  19    -0.00089502362744413
  20    -0.071403958642304
  21     -0.12796307580313
  22    -0.0061661246627452
  23     0.015355815239917
  24    2.0368273798762e-09
  25     0.047954806048399
  26     0.076565386395021
  27    5.1126206947746e-09
  28     -0.00680222791296
  29      0.05288792625056
  30      0.12609162714144
  31    -0.0021589985889615
  32    -0.010962746447305
  33    -1.0455044598257e-09
  34     0.010677535959881
  35    -0.031722968216646
  36    -4.7630675152932e-09
  37       0.0232520936064
  38     -0.11416280469217
  39     -0.11016179133191
  40     0.017356929248207
  41    0.0088100269734629
  42     0.019473007573861
  43     0.025474840460739
  44     0.010479209075894
  45     0.018204687002239
  46      0.02325196370497
  47     -0.11416281709551
  48     -0.11016171589526
  49     0.017356923475054
  50    0.0088100225599991
  51    -0.019473007334953
  52     0.025474813850578
  53     0.010479174517188
  54    -0.018204661061479
 Sym= A
 Ene=               4
 Spin= Alpha
 Occup=    1.00000
   1    -0.056080260227115
   2      0.15924622634858
   3      0.40089933823546
   4    -0.047533295268549
   5       1.0327465139447
   6    7.0171230371594e-08
   7      0.22540697796779
   8    -0.030487223810878
   9    7.7349793356167e-08
  10    -0.00089504675502734
  11    -0.071403978689521
  12     -0.12796319177696
  13     0.015355818482703
  14    -0.0061661049954147
  15    4.8708391452865e-10
  16     0.076565401811552
  17     0.047954811369963
  18    -1.5603226319907e-09
  19     0.047395138884337
  20     -0.15691362219741
  21    -0.092358894782474
  22    0.0047938145556632
  23     0.038350411458067
  24    1.0930569431763e-09
  25    -0.037744781789746
  26    -0.014867277559149
  27    9.9917065600377e-09
  28    -0.0068021679976787
  29     0.052887882662979
  30      0.12609170020112
  31    -0.010962740962562
  32    -0.0021589948336613
  33    -1.5017494244598e-09
  34    -0.031722983105029
  35     0.010677528916816
  36    -1.6147354001922e-09
  37     0.023252074687388
  38     -0.11416281381215
  39     -0.11016185653574
  40    0.0088100307568804
  41     0.017356933232122
  42     0.019473019562409
  43     0.010479222567102
  44     0.025474849626059
  45     0.018204680518397
  46     0.023252052121803
  47     -0.11416271946971
  48     -0.11016176247007
  49    0.0088100271167512
  50     0.017356930428699
  51    -0.019473020545664
  52     0.010479190312706
  53     0.025474812987961
  54    -0.018204641044781
 Sym= A
 Ene=               5
 Spin= Alpha
 Occup=    1.00000
   1    -1.210649573998e-06
   2    -1.9984515627632e-06
   3    -1.5205068942333e-06
   4    1.7813677165711e-07
   5    1.7374723554951e-07
   6       1.0802797950796
   7    -9.0534668172597e-07
   8    -8.8945882763886e-07
   9     -0.25589402725427
  10    7.5421307113443e-08
  11    5.1415167420953e-07
  12    3.9156757219397e-07
  13    -4.8559440660646e-08
  14    1.4336805866891e-08
  15    0.0085469814629803
  16    -2.6108336191877e-07
  17    -2.1555535366232e-08
  18     0.014995829607777
  19    7.3233772059715e-09
  20    4.4753185354734e-07
  21    3.7900504229694e-07
  22    1.4187593276116e-08
  23    -4.503862774756e-08
  24    0.0085469605329507
  25    -1.9255556406219e-08
  26    -2.537066589139e-07
  27     0.014995815769391
  28    -5.5913065957188e-08
  29    -1.0472192954987e-07
  30    -3.3842456469102e-07
  31    3.9744177456775e-09
  32    2.9421219059032e-09
  33    0.0088038139606608
  34    2.3032286149686e-08
  35    2.4019953990008e-08
  36     0.042400704589038
  37     0.034147535975366
  38    -0.060465796483268
  39     0.025176162124144
  40     0.012004704812361
  41     0.012004701429112
  42    0.0060171673233458
  43    -0.062625869670487
  44    -0.062625863270934
  45    -0.002866443528783
  46     -0.03414744877684
  47     0.060466751825268
  48    -0.025175391049507
  49    -0.012004737475275
  50    -0.012004736931756
  51    0.0060172539892636
  52     0.062625589422841
  53      0.06262558792475
  54    -0.002866108936534
 Sym= A
 Ene=               6
 Spin= Alpha
 Occup=    0.00000
   1     -0.10221686199015
   2      0.37374039975896
   3      0.60582834482327
   4     -0.39978075591336
   5     0.038078407615875
   6    -6.0123231630121e-07
   7       1.8967151311909
   8    -0.089230795394591
   9    -5.971523788563e-07
  10     0.093749847313685
  11     -0.70986924560607
  12     -0.43929934556302
  13       0.1211409690761
  14    -0.025130474413268
  15    5.2431302125552e-10
  16      0.60792024077396
  17      0.24442566141015
  18    3.3159903518137e-08
  19    -0.013622564163568
  20      0.12380315077004
  21      0.10811119755966
  22    -0.0029366108097871
  23    -0.0016065735542227
  24    2.4743277178988e-09
  25     -0.24418777312679
  26      -0.1010953965737
  27    -7.392492049827e-08
  28    0.0016851697189664
  29     0.030272076002421
  30      0.11172580311747
  31    0.00066761500426869
  32    -0.017305731776371
  33    2.0941915315889e-08
  34     -0.12603074516777
  35     0.055373610212988
  36    4.5571378723002e-08
  37     0.040067539037582
  38     -0.29304227910013
  39     -0.16559644727277
  40      0.02393869481985
  41     0.021794870149795
  42     0.052184385368427
  43      0.10566863459688
  44      0.14786230674808
  45      0.17910922423648
  46     0.040067490993376
  47     -0.29304277406102
  48     -0.16559734327779
  49     0.023938706256664
  50      0.02179489808644
  51    -0.052184391470371
  52      0.10566889833698
  53      0.14786264540072
  54     -0.17910949255633
 Sym= A
 Ene=               7
 Spin= Alpha
 Occup=    0.00000
   1     -0.10221698491911
   2      0.37374040751791
   3      0.60582974541277
   4     0.038078755739322
   5      -0.3997814977436
   6    -6.0890108363141e-07
   7    -0.089229615866383
   8       1.8967154308257
   9    -5.9860846236799e-07
  10    -0.013622224052728
  11      0.12380292034074
  12      0.10811134358022
  13    -0.0016064526522009
  14    -0.0029366485672529
  15    -1.9572008110713e-09
  16     -0.10109510419923
  17     -0.24418753328542
  18    3.6361690458027e-08
  19     0.093749457347054
  20     -0.70986954375793
  21     -0.43930015958908
  22    -0.025130454519603
  23      0.12114095383742
  24    1.3042553893517e-09
  25      0.24442546640688
  26      0.60792033066519
  27    -6.5536425919606e-08
  28    0.0016851309400559
  29     0.030272077466974
  30      0.11172611433249
  31    -0.017305686127507
  32    0.00066757983021696
  33    2.0074237089002e-08
  34      0.05537355776269
  35     -0.12603073236709
  36    5.061097463146e-08
  37     0.040067417124839
  38     -0.29304259699792
  39     -0.16559679194711
  40     0.021794910939599
  41      0.02393868594296
  42     0.052184430691649
  43      0.14786234324783
  44      0.10566880884264
  45      0.17910934084098
  46     0.040067544213505
  47      -0.2930429497503
  48     -0.16559766851593
  49     0.021794925724752
  50      0.02393871548677
  51    -0.052184436025505
  52       0.1478625997489
  53       0.1056691536111
  54     -0.17910959627392
 Sym= A
 Ene=               8
 Spin= Alpha
 Occup=    0.00000
   1    -5.6634032791225e-07
   2    -1.10821292155e-06
   3    -9.0330490847937e-07
   4    1.0692375831571e-07
   5    9.8398590509654e-08
   6     -0.43785971976347
   7    -5.2762248458539e-07
   8    -5.1541262232983e-07
   9       1.9859455112644
  10    1.0000715451618e-07
  11    3.7820931422659e-07
  12    2.3949493242416e-07
  13    -2.7282288888846e-08
  14    7.5665435958071e-09
  15    0.0021438091613475
  16    -1.6112730331627e-07
  17    -9.8965563651448e-09
  18     -0.04219357353067
  19    -4.2692938647391e-08
  20    2.4187734344113e-07
  21    2.1634443106958e-07
  22    8.914297876043e-09
  23    -2.5628509480944e-08
  24    0.0021438005668558
  25    -1.5765737738407e-08
  26    -1.4739986760616e-07
  27    -0.042193576147838
  28    -2.5646197949824e-08
  29    -1.1244583870581e-08
  30    -1.9209274647806e-07
  31    4.5511972780908e-09
  32    3.1497217986578e-09
  33     0.017973310870593
  34    7.5250206288029e-09
  35    1.4121818178698e-08
  36     -0.18140428117044
  37     0.075923587947582
  38     -0.58949546779982
  39     -0.38707785750139
  40     0.035551067864646
  41     0.035551067447312
  42     0.072470625961821
  43      0.42342561091417
  44      0.42342561371137
  45      0.11020111612718
  46    -0.075923653038257
  47      0.58949593977005
  48      0.38707830621632
  49    -0.035551086461119
  50    -0.035551087743077
  51     0.072470674295023
  52      -0.4234257828837
  53     -0.42342577834639
  54      0.11020130395939
 Sym= A
 Ene=               9
 Spin= Alpha
 Occup=    0.00000
   1    -0.012633529137999
   2    -0.0071551546687794
   3     -0.10076535414669
   4    0.0090401230090893
   5    -0.0097912514013253
   6    9.6635500982421e-09
   7    -0.018183763090386
   8     0.010788296198028
   9    -1.5708597554326e-07
  10       1.2181025792247
  11      -0.5341058073788
  12      0.48932065416899
  13     0.076356482622067
  14    -0.076360433956148
  15    4.8738843654331e-07
  16     -0.21800866797668
  17      0.21800454225549
  18    -1.7904152253653e-07
  19    0.0098871096611637
  20    -0.077915212967216
  21      0.10598898069075
  22    -0.006355385540781
  23    0.0063553114110635
  24    -1.1917318394915e-08
  25    -0.0078366225500797
  26    0.0078370497712275
  27    1.0507171655738e-07
  28    -0.012634382710645
  29    -0.0071532025375439
  30     -0.10076494139554
  31    0.0097912252311472
  32    -0.0090407307997229
  33    3.0969595977668e-08
  34    -0.010786972932838
  35     0.018182459718133
  36    3.0689302189775e-08
  37    -0.012624686954224
  38    -0.0071744797778679
  39     -0.10076923478347
  40    0.0094158852227967
  41    -0.0094159553065978
  42    0.00052962756414499
  43    -0.014485036057588
  44     0.014485367795999
  45     0.005236496587667
  46    -0.012624901167984
  47    -0.0071745163476321
  48     -0.10077041761751
  49    0.0094159118344967
  50    -0.0094158945647037
  51    -0.00052955840533862
  52    -0.014485426508355
  53     0.014485421893352
  54    -0.0052368571799036
 Sym= A
 Ene=              10
 Spin= Alpha
 Occup=    0.00000
   1      0.03837376354341
   2     -0.77268268804406
   3     -0.53120144619086
   4     -0.12531428963715
   5    -0.018330878416278
   6    1.3240407445839e-08
   7     -0.50766819026618
   8      0.02278078148734
   9    -8.4463079394461e-08
  10     -0.91396585853411
  11       2.6857666954049
  12       2.0082010509817
  13      0.36003175408084
  14     -0.36003455918239
  15    1.2656211038922e-07
  16      -1.6213734028252
  17       1.6213698675178
  18    -2.3829825389648e-07
  19    0.0088068494397936
  20      0.14363189118869
  21      0.42003022813169
  22     0.016404009611123
  23    -0.016404172606927
  24    6.6419121708819e-09
  25     0.066480365624334
  26    -0.066479963889758
  27    4.5399398521224e-08
  28     0.038372736138396
  29     -0.77268050336308
  30     -0.53120072213158
  31     0.018330915100861
  32      0.12531395648176
  33    2.2622602962089e-08
  34    -0.022779880507643
  35      0.50766686307489
  36    8.6113746415429e-09
  37     0.038362611843149
  38     -0.77265974549064
  39     -0.53119618825858
  40    -0.053491624226124
  41     0.053491521278359
  42        0.101573840414
  43     -0.26522387954734
  44      0.26522407089757
  45      0.34286013980655
  46      0.03836248465951
  47     -0.77265985740957
  48     -0.53119681100248
  49    -0.053491626768842
  50     0.053491564557146
  51     -0.10157383607134
  52     -0.26522411985192
  53      0.26522415196054
  54     -0.34286031429032
 Sym= A
 Ene=              11
 Spin= Alpha
 Occup=    0.00000
   1    -0.0082739053930384
   2     -0.18090969991756
   3     -0.78746081230836
   4    -0.011625380523919
   5    -0.018137738989181
   6    -5.1100509913848e-09
   7    -0.075481967340514
   8     0.087409276157855
   9    4.3642030942198e-08
  10      0.23248167935078
  11      -1.1864717717409
  12       3.5356923618134
  13      0.18654922607725
  14     -0.18654885148842
  15    -1.6160137830328e-07
  16      -0.5434428892589
  17      0.54344331000327
  18    -1.3146795965915e-08
  19     0.011916884999755
  20       -0.216024737685
  21      0.83042690306684
  22    -0.023581133634302
  23     0.023581157729293
  24    -1.354799395292e-09
  25    -0.026408443515444
  26     0.026408362616282
  27    -1.1721225153134e-08
  28    -0.0082737725028558
  29     -0.18090991874482
  30     -0.78746071957047
  31     0.018137736620896
  32      0.01162545179948
  33    -9.8054093826036e-09
  34    -0.087409451508988
  35     0.075482107191671
  36    1.2637385428857e-09
  37    -0.0082736939590555
  38     -0.18091181654203
  39     -0.78746128000283
  40    0.0032561549409517
  41    -0.0032561340174037
  42     0.021045591292609
  43    -0.081445736645946
  44     0.081445659510805
  45    -0.0084334457400701
  46    -0.0082735948220245
  47     -0.18091183618867
  48     -0.78746097275904
  49    0.0032561444169617
  50    -0.0032561439741963
  51    -0.021045617804587
  52    -0.081445671789911
  53     0.081445674797865
  54    0.0084335442676325
 Sym= A
 Ene=              12
 Spin= Alpha
 Occup=    0.00000
   1    -0.047394876493565
   2      0.15691331462601
   3     0.092358675907317
   4      0.03835042592063
   5    -0.0047937949171106
   6    -8.5113447204195e-10
   7    -0.014867454345463
   8     0.037744731419705
   9    4.4667428758725e-09
  10     0.056080910770803
  11     -0.15924506166752
  12     -0.40089848120812
  13       1.0327466439874
  14     0.047533281443356
  15    -1.2844585446885e-08
  16    -0.030487768591183
  17     -0.22540625789122
  18    2.4904617720157e-08
  19    0.0068022286398797
  20    -0.052887709761785
  21      -0.1260915066726
  22    -0.0021589869877617
  23     0.010962728400006
  24    3.8940250270683e-10
  25     0.010677570920649
  26     0.031722905175388
  27    -5.1825115215228e-09
  28    0.00089504824773436
  29     0.071403549256714
  30      0.12796289503577
  31    -0.0061661095244359
  32    -0.015355800640477
  33    -2.776011629363e-09
  34     0.047954799548891
  35    -0.076565161114541
  36    4.0403086175091e-10
  37    -0.023252059529174
  38       0.1141623077392
  39      0.11016159769767
  40     0.017356924682757
  41    -0.008810016681519
  42    -0.019473027753493
  43     0.025474726594279
  44    -0.010479114776075
  45    -0.018204512613742
  46    -0.023252025377041
  47      0.11416236276814
  48      0.11016165378744
  49     0.017356924364628
  50    -0.0088100132411387
  51     0.019473015387611
  52     0.025474752331936
  53    -0.010479120940774
  54     0.018204527511609
 Sym= A
 Ene=              13
 Spin= Alpha
 Occup=    0.00000
   1    -0.00089507400499567
   2    -0.071405318688927
   3     -0.12796441688203
   4    -0.015356045559589
   5    -0.0061661816901809
   6    1.0168600231824e-09
   7    -0.076566259403606
   8     0.047954939387368
   9    -5.9194075480377e-09
  10    -0.056078101060414
  11      0.15925126142277
  12      0.40090444243196
  13     0.047533820696692
  14        1.032745728921
  15    1.1807447236387e-08
  16      -0.2254100659854
  17    -0.030484373165986
  18    -2.1467951785241e-08
  19    -0.0068022807584602
  20     0.052887894088545
  21      0.12609280130562
  22     0.010962742618339
  23    -0.002159000897923
  24    -3.211351359751e-10
  25     0.031723017729916
  26     0.010677502681341
  27    6.9719144741147e-09
  28     0.047394973514879
  29     -0.15691495856664
  30    -0.092360137631076
  31    -0.0047937491555714
  32     0.038350561032242
  33    1.835866637479e-09
  34     0.037744701928111
  35    -0.014866505026117
  36     2.49042563702e-09
  37     0.023251964176669
  38     -0.11416407592943
  39     -0.11016310065306
  40    -0.0088100936494485
  41     0.017356991550413
  42     0.019473208750823
  43     -0.01047965931092
  44     0.025475302938648
  45     0.018205198522651
  46      0.02325197185484
  47     -0.11416408803527
  48     -0.11016314936202
  49    -0.008810087738132
  50     0.017356997154256
  51    -0.019473200062296
  52    -0.010479678302828
  53     0.025475313395958
  54    -0.018205202250371
 Sym= A
 Ene=              14
 Spin= Alpha
 Occup=    0.00000
   1    8.9727467611667e-08
   2    -8.9607307195801e-08
   3    -1.2953907682883e-07
   4    -3.0119838230474e-08
   5    -4.6102266289618e-09
   6    0.0085469640083813
   7    -1.0944992244516e-07
   8    1.2259550918942e-08
   9     0.014995802933762
  10    -5.2517619072603e-07
  11    3.7552597340605e-08
  12    5.5009421972023e-07
  13    8.0459327956787e-08
  14    -8.1068665070056e-08
  15       1.0802797914284
  16    -3.9098725100413e-07
  17    3.936529332031e-07
  18     -0.25589402749437
  19    -3.717613080833e-08
  20    -5.8208023541643e-08
  21    1.0680175248756e-07
  22    2.1715408927245e-09
  23    -3.6094249457241e-09
  24    0.0088038043417688
  25    1.4021265901935e-08
  26    -1.1665151477156e-08
  27     0.042400684108663
  28    -1.3350018179107e-08
  29    -1.76830543725e-07
  30    -1.422890068303e-07
  31    5.7443219641351e-09
  32    3.3115546229084e-08
  33    0.0085469790471124
  34    -1.0786708175179e-08
  35    1.1233650365747e-07
  36     0.014995818574247
  37     0.034147566551751
  38    -0.060466265752761
  39     0.025175662352657
  40    -0.012004727843612
  41     0.012004728770275
  42    0.0060172483974693
  43     0.062625656199878
  44    -0.062625661584195
  45    -0.0028662230837231
  46    -0.034147429496933
  47     0.060466060482706
  48    -0.025175925389741
  49     0.012004695378742
  50     -0.01200469830159
  51    0.0060171913277899
  52    -0.062625779573279
  53     0.062625791587856
  54    -0.0028663661389394
 Sym= A
 Ene=              15
 Spin= Alpha
 Occup=    0.00000
   1    -0.093749184982011
   2      0.70986939981342
   3      0.43930029683346
   4       0.1211408604052
   5     0.025130591120634
   6    1.0712738428158e-08
   7      0.60792033984332
   8      -0.2444251721827
   9    -7.6744379011928e-08
  10      0.10221674709148
  11     -0.37374050279798
  12     -0.60582903816565
  13     -0.39978176232308
  14     -0.03807925201169
  15    2.8282305846959e-07
  16       1.8967151816789
  17        0.089228782878
  18    4.5264683174552e-08
  19    -0.0016844274969712
  20    -0.030272359501549
  21     -0.11172587304014
  22    0.00066772809632005
  23     0.017305474645417
  24    6.8645318742058e-09
  25     -0.12603097581679
  26    -0.055373109559599
  27    2.8228799347601e-08
  28     0.013622334619918
  29     -0.12380223306419
  30      -0.1081106499902
  31    -0.0029367252420995
  32    0.0016064535950263
  33    1.9173454313183e-08
  34     -0.24418757943685
  35      0.10109461758111
  36    6.8188059904776e-09
  37    -0.040067538787982
  38      0.29304241035883
  39      0.16559673747947
  40     0.023938670560692
  41    -0.021794937066199
  42    -0.052184435477273
  43       0.1056690489177
  44     -0.14786247759538
  45     -0.17910946815485
  46    -0.040067569784377
  47      0.29304258281322
  48      0.16559625366076
  49     0.023938688514866
  50    -0.021794911971898
  51     0.052184467713613
  52      0.10566892320147
  53     -0.14786251684257
  54      0.17910933502151
 Sym= A
 Ene=              16
 Spin= Alpha
 Occup=    0.00000
   1     -0.01362283543922
   2      0.12380183584627
   3      0.10810977939978
   4    0.0016064879352171
   5    -0.0029367865121541
   6    -1.3422231707488e-08
   7      0.10109451008179
   8     -0.24418799173778
   9    8.2795379745389e-08
  10      -0.1022153361038
  11      0.37374461796472
  12      0.60583279317884
  13     -0.03807747804403
  14     -0.39978092360199
  15    -2.9284423928417e-07
  16     0.089227980206821
  17       1.8967190201551
  18    -6.1789556744129e-09
  19    0.0016844997191369
  20     0.030272354458476
  21      0.11172666235362
  22     0.017305589543427
  23    0.00066780938085901
  24    -8.3060867411942e-09
  25    -0.055373292279726
  26     -0.12603127518681
  27    -2.3006714158853e-08
  28     0.093749851772162
  29     -0.70987122826747
  30     -0.43930130089102
  31     0.025130600186486
  32       0.1211411584271
  33    -2.1311610779003e-08
  34     -0.24442571484836
  35      0.60792158177867
  36    -3.7378746850118e-09
  37     0.040067486143761
  38     -0.29304367983088
  39     -0.16559770056149
  40    -0.021794918459434
  41     0.023938786497885
  42      0.05218455382357
  43     -0.14786302853724
  44      0.10566925043108
  45      0.17910991876728
  46     0.040067679282914
  47     -0.29304369514777
  48     -0.16559717511816
  49    -0.021794932882548
  50     0.023938764396459
  51     -0.05218458452766
  52     -0.14786289004845
  53      0.10566927227693
  54     -0.17910976468312
 Sym= A
 Ene=              17
 Spin= Alpha
 Occup=    0.00000
   1    8.6403820708364e-08
   2    -3.6723793098273e-08
   3    -9.9209107299799e-08
   4    -2.3073954155609e-08
   5    -3.2618458646374e-09
   6    0.0021437996033093
   7    -8.4297352744156e-08
   8    1.3611967035464e-08
   9    -0.042193582255798
  10    -1.3130615563254e-07
  11    2.3509055180246e-07
  12    4.0104694509309e-07
  13    5.9159768175376e-08
  14    -5.2196110236088e-08
  15     -0.43785972350837
  16    -3.0939923514658e-07
  17    2.7620105584759e-07
  18       1.9859455097613
  19    -1.9628667138821e-08
  20    1.1097607600928e-08
  21    8.3277029488876e-08
  22    7.8851840759111e-10
  23    -2.126089166858e-09
  24     0.017973307284283
  25    1.5346627732991e-08
  26    -5.1407211113635e-09
  27     -0.18140428691669
  28    -2.7141218943349e-08
  29    -1.3195754081149e-07
  30    -1.0317847920357e-07
  31    3.8772094700073e-09
  32    2.3050961625293e-08
  33    0.0021438078358709
  34    -9.1199673503327e-10
  35    7.8433163820925e-08