[Molden Format]
made by pyscf v[2.0.1]
[Atoms] (AU)
He   1   2     0.00000000000000     0.00000000000000     0.00000000000000
He   2   2     2.67247631004616     0.00000000000000     0.00000000000000
He   3   2     0.00000000000000     2.67247631004616     0.00000000000000
He   4   2     2.67247631004616     2.67247631004616     0.00000000000000
He   5   2     1.33623815502308     1.33623815502308     1.88972612456506
He   6   2     1.33623815502308     1.33623815502308    -1.88972612456506
[GTO]
1 0
 s    3 1.00
                 38.36   0.040176075383249
                  5.77    0.26136807476949
                  1.24    0.79307123949544
 s    1 1.00
                0.2976                   1
 s    1 1.00
               0.07255                   1
 p    1 1.00
                 1.275                   1
 p    1 1.00
                0.2473                   1

2 0
 s    3 1.00
                 38.36   0.040176075383249
                  5.77    0.26136807476949
                  1.24    0.79307123949544
 s    1 1.00
                0.2976                   1
 s    1 1.00
               0.07255                   1
 p    1 1.00
                 1.275                   1
 p    1 1.00
                0.2473                   1

3 0
 s    3 1.00
                 38.36   0.040176075383249
                  5.77    0.26136807476949
                  1.24    0.79307123949544
 s    1 1.00
                0.2976                   1
 s    1 1.00
               0.07255                   1
 p    1 1.00
                 1.275                   1
 p    1 1.00
                0.2473                   1

4 0
 s    3 1.00
                 38.36   0.040176075383249
                  5.77    0.26136807476949
                  1.24    0.79307123949544
 s    1 1.00
                0.2976                   1
 s    1 1.00
               0.07255                   1
 p    1 1.00
                 1.275                   1
 p    1 1.00
                0.2473                   1

5 0
 s    3 1.00
                 38.36   0.040176075383249
                  5.77    0.26136807476949
                  1.24    0.79307123949544
 s    1 1.00
                0.2976                   1
 s    1 1.00
               0.07255                   1
 p    1 1.00
                 1.275                   1
 p    1 1.00
                0.2473                   1

6 0
 s    3 1.00
                 38.36   0.040176075383249
                  5.77    0.26136807476949
                  1.24    0.79307123949544
 s    1 1.00
                0.2976                   1
 s    1 1.00
               0.07255                   1
 p    1 1.00
                 1.275                   1
 p    1 1.00
                0.2473                   1

[5d]
[7f]
[9g]

[MO]
 Sym= A
 Ene=               0
 Spin= Alpha
 Occup=    1.00000
   1       1.2059174208622
   2     -0.49779061315039
   3      0.54404766995456
   4    -0.083249038500768
   5    -0.083247803022178
   6    1.4896174344946e-06
   7      0.25421053623061
   8      0.25421023412446
   9    1.3309765527682e-06
  10    -0.011451390972314
  11     -0.02249957151037
  12     -0.11576247135089
  13    -0.0080216804542833
  14    -0.010596289754917
  15    -3.3008912438134e-08
  16     0.027378705483766
  17     0.011280470286334
  18    -6.4645592968354e-08
  19    -0.011451655203112
  20    -0.022498022509083
  21     -0.11576247658709
  22    -0.010596317199342
  23    -0.0080214376732973
  24    2.8702880638934e-08
  25     0.011280707970374
  26     0.027378264162269
  27    -6.653050450143e-08
  28    0.0095141914081518
  29     -0.07881328281787
  30      0.12152576331403
  31    0.0067021412838864
  32    0.0067021025996196
  33    -2.1802071621658e-08
  34    0.0060133906037489
  35    0.0060132487202547
  36    -1.0168019093782e-07
  37    -0.011451838807231
  38    -0.022499794806644
  39     -0.11576268178838
  40    -0.0093088885320631
  41    -0.009308899713247
  42    0.0018207207503337
  43     0.019329962061588
  44     0.019329879922001
  45     0.011382859227994
  46    -0.011452702582249
  47    -0.022499844635525
  48     -0.11576264890615
  49    -0.0093089172733352
  50    -0.0093089825040457
  51    -0.001820425723538
  52      0.01932935835851
  53     0.019329259934268
  54    -0.011382991412811
 Sym= A
 Ene=               1
 Spin= Alpha
 Occup=    1.00000
   1     -0.95345927853894
   2       2.8509626317893
   3       2.1656888596101
   4     -0.37151295091213
   5     -0.37151221412101
   6    9.780438397348e-07
   7       1.7288803143088
   8        1.728880197206
   9    1.0536103277593e-06
  10     0.035066079759768
  11     -0.83946908874091
  12     -0.57002348576548
  13      0.13599780718918
  14    -0.020313241387051
  15    2.7310709360681e-09
  16      0.53620066975088
  17     0.027586331573718
  18    5.0223676893348e-08
  19     0.035067315711324
  20     -0.83947020586636
  21     -0.57002376632024
  22    -0.020313063943071
  23      0.13599768120162
  24    3.5307966712248e-08
  25     0.027585965501827
  26      0.53620081394343
  27    4.9859795951383e-08
  28      0.01211629820744
  29      0.13903622420822
  30      0.46001092040217
  31    -0.015023969289527
  32     -0.01502393842342
  33    1.7157457673062e-08
  34    -0.071713406664778
  35    -0.071713236950376
  36    8.5248672665732e-09
  37     0.035066721077584
  38     -0.83947045311828
  39     -0.57002376193872
  40     0.057842308542007
  41     0.057842344398587
  42      0.11052850435849
  43      0.28189360824216
  44      0.28189377973429
  45      0.35964488593744
  46     0.035065628868143
  47     -0.83946904102486
  48     -0.57002334204836
  49     0.057842281998479
  50     0.057842301046925
  51     -0.11052850975002
  52      0.28189317819716
  53      0.28189334297506
  54     -0.35964454182486
 Sym= A
 Ene=               2
 Spin= Alpha
 Occup=    1.00000
   1      0.24169336249879
   2      -1.2176903951997
   3       3.5652711183968
   4     -0.18547811722598
   5     -0.18547843165243
   6    -2.2317398945117e-07
   7      0.52737282194137
   8      0.52737232427802
   9    -1.6671612301276e-07
  10    -0.010025822514659
  11     -0.16785682423232
  12     -0.80569359351515
  13    0.0063705340352335
  14    -0.017782037433122
  15    7.8353776347464e-09
  16     0.064491006683706
  17     0.085752732441262
  18    5.6177720362333e-10
  19    -0.010025897292521
  20     -0.16785641390204
  21      -0.8056933380805
  22    -0.017782065970833
  23    0.0063704828763164
  24    -1.17387448542e-08
  25     0.085752653996976
  26     0.064490819312754
  27    3.2866289460522e-09
  28     0.009061497277088
  29      -0.2227353400462
  30      0.86567063521821
  31     0.024658146021655
  32     0.024658140953173
  33    4.7998200226968e-09
  34     0.025823195096417
  35     0.025823224590684
  36    -4.2233658685386e-09
  37    -0.010025817232602
  38     -0.16785641656442
  39     -0.80569348429455
  40    -0.0057057716729001
  41    -0.0057057782222976
  42     0.017078437468713
  43     0.075121759135911
  44      0.07512173781627
  45    -0.015034335993998
  46    -0.010025396199794
  47      -0.1678563845281
  48     -0.80569340781616
  49    -0.0057057796913724
  50    -0.0057057703310543
  51    -0.017078461256382
  52     0.075121835346279
  53      0.07512181160964
  54      0.01503433776828
 Sym= A
 Ene=               3
 Spin= Alpha
 Occup=    1.00000
   1    -0.067459487342224
   2       0.2058079040221
   3      0.44951403939939
   4       1.0294025500538
   5    -0.049596316146637
   6     6.89977163288e-08
   7    0.0051027036487541
   8      0.24947912310534
   9    5.4743981387582e-08
  10     0.050506724068994
  11     -0.18454847777175
  12     -0.11334629626221
  13     0.044919650773697
  14    0.0048098146656427
  15    -7.5183191209414e-09
  16    0.0006769665915102
  17    -0.040917387560682
  18    -6.0863761453809e-09
  19    -0.0017066158945283
  20    -0.079221855147206
  21     -0.13772008006322
  22    -0.0062895062557706
  23     0.016877803947636
  24    1.6408629429051e-09
  25     0.048861273307777
  26     0.082952968226998
  27    -1.7962541158046e-09
  28    -0.0063982744125311
  29      0.06205291188076
  30      0.14289130883719
  31    -0.0025696542144066
  32    -0.012518822179532
  33    -7.2726529366729e-10
  34    0.0084424269350266
  35    -0.037035363185667
  36    -5.0128818234274e-09
  37     0.024400050819598
  38     -0.13188518110626
  39     -0.12553321206853
  40     0.019815492638931
  41     0.010343406324574
  42      0.02237185429165
  43     0.031762800342264
  44     0.014024150333086
  45     0.026759055505925
  46     0.024400110167516
  47     -0.13188524495366
  48     -0.12553321021106
  49     0.019815490050205
  50     0.010343383037977
  51    -0.022371807957928
  52      0.03176277943081
  53     0.014024121381964
  54    -0.026759050760311
 Sym= A
 Ene=               4
 Spin= Alpha
 Occup=    1.00000
   1      -0.0674603641237
   2      0.20580663138183
   3      0.44951410972787
   4    -0.049596428216352
   5       1.0294025716282
   6    6.6224098142973e-08
   7      0.24947904698076
   8    0.0051026593225692
   9    6.7754982909212e-08
  10    -0.0017064783807972
  11    -0.079221883234827
  12     -0.13772009241422
  13     0.016877781481612
  14    -0.0062894905109072
  15    -2.4097318605543e-09
  16     0.082952932196654
  17     0.048861271132605
  18    -3.6964895298777e-09
  19     0.050506654180042
  20     -0.18454814957899
  21     -0.11334629169638
  22    0.0048097948196347
  23     0.044919703762191
  24    -1.0071815426444e-09
  25    -0.040917344597042
  26    0.00067691189016478
  27    -4.0096255632462e-09
  28    -0.0063982932770476
  29     0.062052859686107
  30      0.14289133393061
  31    -0.012518812097353
  32    -0.0025696409431964
  33    -4.8735814623055e-10
  34    -0.037035352072021
  35    0.0084424092989911
  36    -5.1430612378908e-09
  37     0.024400023891468
  38     -0.13188510425631
  39     -0.12553321711795
  40     0.010343406095191
  41     0.019815483294917
  42     0.022371860963417
  43     0.014024147853988
  44     0.031762770717617
  45     0.026759023734717
  46     0.024400105211057
  47     -0.13188513832766
  48     -0.12553320945289
  49      0.01034338348969
  50     0.019815488245372
  51    -0.022371815434615
  52     0.014024113456882
  53     0.031762747259544
  54    -0.026759016328139
 Sym= A
 Ene=               5
 Spin= Alpha
 Occup=    1.00000
   1    -1.0737010038437e-06
   2    -2.2661258945735e-06
   3    -1.9053390895582e-06
   4    2.1643129794746e-07
   5    2.122907383951e-07
   6       1.0789989207633
   7    -1.1617486902067e-06
   8    -1.1442616758703e-06
   9     -0.24437635475547
  10    5.7350541487808e-08
  11    6.5345397972802e-07
  12    4.942408062838e-07
  13    -7.0417655168555e-08
  14    1.3711048541155e-08
  15    0.0094720751988243
  16    -3.4438949221835e-07
  17    -2.4650919830976e-08
  18     0.017738635468298
  19    4.0866584854215e-08
  20    6.2941534177117e-07
  21    4.9084423438883e-07
  22    1.597031110615e-08
  23    -6.4942150304529e-08
  24    0.0094720624527013
  25    -1.9285957348031e-08
  26    -3.3745782158478e-07
  27     0.017738630981904
  28    -6.3442400176051e-08
  29    -1.0640904005405e-07
  30    -4.3186900591614e-07
  31    6.6263011906201e-09
  32    6.5888529514343e-09
  33     0.009949171344997
  34    3.4555101670435e-08
  35    3.2456470036382e-08
  36      0.04547778292686
  37     0.036920365513912
  38    -0.074476495296573
  39     0.017235336253373
  40     0.013838468165386
  41     0.013838463034196
  42    0.0084712269458058
  43     -0.06083067517223
  44    -0.060830677905809
  45    0.0037511105185083
  46    -0.036920346615351
  47     0.074477713748805
  48    -0.017234379826457
  49    -0.013838491494178
  50    -0.013838489414736
  51    0.0084713320169844
  52     0.060830326710147
  53     0.060830328628516
  54    0.0037515350368975
 Sym= A
 Ene=               6
 Spin= Alpha
 Occup=    0.00000
   1    -0.092842655990281
   2      0.36243786009495
   3      0.53703356047195
   4     -0.39238491779847
   5     0.048990292940016
   6    -5.7589824837363e-07
   7        1.884197242274
   8     -0.14745310842722
   9    -5.7460548855404e-07
  10     0.088713721461875
  11     -0.71609358517826
  12     -0.41898095365254
  13      0.12088013196995
  14    -0.025003460349833
  15    3.9049607249381e-09
  16      0.60617820798159
  17      0.26556098165081
  18    -2.2655998950651e-08
  19    -0.013339798159197
  20      0.14588437118308
  21      0.12733022597905
  22    -0.0029250954429459
  23    -0.0029436419433361
  24    -2.3970324837083e-08
  25     -0.26515708394486
  26     -0.12179456820095
  27    -2.1282802387014e-08
  28    0.0021129206682681
  29     0.023062406831697
  30     0.094805522071843
  31    0.0017839575880302
  32     -0.01597756483362
  33    1.839345263592e-09
  34     -0.13704366930305
  35     0.066010200042368
  36    -1.400503845888e-08
  37     0.037687045804524
  38     -0.28510415817935
  39     -0.14582525354928
  40     0.023491328066203
  41     0.021512623042968
  42       0.0515710762237
  43     0.095910555993718
  44      0.14648289334613
  45      0.17111269801418
  46     0.037687804641815
  47     -0.28510469235158
  48     -0.14582532915144
  49     0.023491312852264
  50     0.021512629591496
  51    -0.051571081037713
  52      0.09591080053405
  53      0.14648313956903
  54      -0.1711128393425
 Sym= A
 Ene=               7
 Spin= Alpha
 Occup=    0.00000
   1    -0.092842779904562
   2      0.36243785965618
   3      0.53703494690871
   4     0.048990705845227
   5     -0.39238570777813
   6    -5.8370287358744e-07
   7     -0.14745187830744
   8        1.884197457467
   9    -5.7944770872149e-07
  10    -0.013338963633645
  11        0.145883516522
  12      0.12732950274221
  13    -0.0029436105391237
  14    -0.0029249905834321
  15    5.2378590138211e-09
  16        -0.12179410164
  17     -0.26515713644533
  18    -2.1448315400932e-08
  19      0.08871295411358
  20     -0.71609330533323
  21     -0.41898090069999
  22    -0.025003585329106
  23      0.12088018696641
  24    -2.4870323072316e-08
  25      0.26556108431463
  26       0.6061781106093
  27    -1.9559539150003e-08
  28    0.0021129028465618
  29     0.023062322573182
  30     0.094805827300807
  31    -0.015977542447269
  32    0.0017839361029001
  33    1.229748611847e-09
  34     0.066010213823663
  35     -0.13704371841567
  36    -1.2096593358825e-08
  37     0.037687081264579
  38     -0.28510438881074
  39     -0.14582558082497
  40     0.021512664040333
  41     0.023491309730163
  42     0.051571114160566
  43       0.1464830887311
  44     0.095910566160759
  45      0.17111280483941
  46     0.037687869513961
  47     -0.28510491336047
  48     -0.14582564987952
  49     0.021512645727909
  50     0.023491328447046
  51    -0.051571118380853
  52      0.14648332864175
  53     0.095910820900024
  54     -0.17111294583524
 Sym= A
 Ene=               8
 Spin= Alpha
 Occup=    0.00000
   1    -5.0767476882482e-07
   2    -1.243811139682e-06
   3    -1.1044174309541e-06
   4    1.289127160161e-07
   5    1.2041020490895e-07
   6     -0.44137583927833
   7    -6.5629761505788e-07
   8    -6.4570495540017e-07
   9       2.0316498466926
  10    2.0832081221207e-08
  11    3.4536731210888e-07
  12    2.8714606790305e-07
  13    -4.1609295630397e-08
  14    8.6797551018036e-09
  15    0.0019786729644577
  16    -1.9441582207095e-07
  17    -1.7744668406321e-08
  18    -0.050572432381186
  19    1.2273025018194e-08
  20    3.3280817927905e-07
  21    2.7431650935744e-07
  22    1.1507524008079e-08
  23    -3.9365274315808e-08
  24    0.0019786664765552
  25    -1.6315651490246e-08
  26    -1.8682653799398e-07
  27    -0.050572434366897
  28    1.8341906643543e-08
  29    -1.1481016630041e-08
  30    -2.4367469557873e-07
  31    2.2885102336386e-09
  32    1.6135630625328e-09
  33     0.017761499770798
  34    1.5881786982807e-08
  35    1.6868214965745e-08
  36     -0.20305389761811
  37     0.072162207624787
  38     -0.60950970002197
  39     -0.38629979046116
  40     0.035972382754595
  41     0.035972380427399
  42     0.072951095184908
  43      0.44501423926197
  44      0.44501423938761
  45     0.098627059901489
  46    -0.072162165023698
  47      0.60951034676547
  48      0.38630034450177
  49    -0.035972400982396
  50    -0.035972402256174
  51     0.072951169343825
  52     -0.44501444176602
  53     -0.44501444006001
  54     0.098627296215233
 Sym= A
 Ene=               9
 Spin= Alpha
 Occup=    0.00000
   1    -0.011453540837546
   2    -0.022498965588978
   3       -0.115763694349
   4    0.0080210669952319
   5    -0.010596933226873
   6    -6.0188851838132e-08
   7    -0.027378078823007
   8     0.011280912458231
   9    -8.8902536565004e-08
  10       1.2059175757129
  11     -0.49779302826964
  12      0.54404958879311
  13     0.083247299964965
  14    -0.083251443437157
  15    3.2199008393741e-07
  16     -0.25421058451829
  17      0.25420628733488
  18    -2.634760258299e-07
  19    0.0095080722715437
  20    -0.078806191796446
  21      0.12152778329913
  22    -0.0067031253013796
  23    0.0067030596482869
  24    -6.9042540868186e-09
  25    -0.0060111973652951
  26    0.0060118649399539
  27    -1.3500968591195e-07
  28    -0.011453842468144
  29    -0.022499701639943
  30      -0.1157631400819
  31     0.010596618658941
  32    -0.0080218814305686
  33    -1.4899594812813e-08
  34    -0.011279259359716
  35     0.027377075345824
  36    -9.834548678584e-08
  37    -0.011452233686416
  38    -0.022497323487144
  39     -0.11576277908924
  40    0.0093091402558782
  41    -0.0093090993172204
  42    0.0018211260971675
  43    -0.019328603053454
  44     0.019328926878078
  45     0.011382268327314
  46     -0.01145281506019
  47     -0.02249946191512
  48     -0.11576318438727
  49    0.0093091218098062
  50     -0.00930916539949
  51    -0.0018210294107889
  52    -0.019328737278029
  53     0.019328976051588
  54    -0.011382806528983
 Sym= A
 Ene=              10
 Spin= Alpha
 Occup=    0.00000
   1     0.035069151819832
   2      -0.8394715809314
   3     -0.57002438721372
   4     -0.13599730876666
   5    -0.020312462464236
   6    -1.4511893335985e-08
   7     -0.53620159569905
   8     0.027586963600313
   9    4.1347170575398e-08
  10     -0.95345949927531
  11       2.8509614312528
  12       2.1656905890905
  13      0.37151172886407
  14     -0.37151471584862
  15    7.3089907427229e-08
  16      -1.7288808652356
  17       1.7288768488595
  18    -2.0964326254124e-07
  19     0.012122762716768
  20       0.1390267936561
  21      0.46000993823783
  22     0.015024793950211
  23    -0.015024952071038
  24    1.0906767058918e-08
  25     0.071711375475931
  26    -0.071711404072502
  27    3.4626667176275e-08
  28     0.035066103101287
  29     -0.83946679108492
  30      -0.5700228562096
  31     0.020312724857867
  32       0.1359972930416
  33    9.6636849974504e-09
  34    -0.027586772242569
  35      0.53619962960774
  36    3.6210157005989e-08
  37     0.035068547913391
  38     -0.83946842570543
  39     -0.57002331194386
  40    -0.057842379199767
  41     0.057842288725482
  42      0.11052772818364
  43     -0.28189381892568
  44      0.28189353944434
  45      0.35964413506465
  46     0.035067544918364
  47     -0.83946848866006
  48     -0.57002338052807
  49    -0.057842412788423
  50     0.057842287409086
  51     -0.11052788153283
  52     -0.28189394952498
  53      0.28189363375085
  54     -0.35964406970132
 Sym= A
 Ene=              11
 Spin= Alpha
 Occup=    0.00000
   1    -0.010026203611926
   2     -0.16785551396445
   3     -0.80569283592139
   4    -0.0063704290436182
   5    -0.017782084132537
   6    1.3452842189966e-08
   7    -0.064490354245592
   8     0.085752542834427
   9    5.8047137555336e-09
  10      0.24169295812538
  11      -1.2176925414941
  12       3.5652687486085
  13      0.18547822301194
  14     -0.18547777222816
  15    -1.2410206545504e-07
  16     -0.52737086477149
  17      0.52737137676454
  18    -9.3928929265147e-09
  19    0.0090606254054672
  20     -0.22273403471122
  21      0.86567042020412
  22    -0.024658242506331
  23     0.024658267267764
  24    -3.7263823761287e-09
  25    -0.025823080102654
  26     0.025823070058033
  27    2.6391879416143e-08
  28    -0.010025514399807
  29     -0.16785569395253
  30     -0.80569292258983
  31     0.017782070901568
  32    0.0063704565043892
  33    -1.9910385096066e-09
  34    -0.085752583584389
  35     0.064490572231116
  36    1.2892134473384e-08
  37    -0.010026316757767
  38     -0.16785616147127
  39     -0.80569317648701
  40    0.0057058217026824
  41    -0.0057058206531534
  42     0.017078385110268
  43    -0.075121503679167
  44     0.075121533359438
  45    -0.015034429467733
  46    -0.010025988258158
  47      -0.1678558681264
  48     -0.80569311523481
  49     0.005705826024794
  50      -0.0057058004784
  51    -0.017078384048757
  52    -0.075121502045476
  53     0.075121549225873
  54     0.015034494092447
 Sym= A
 Ene=              12
 Spin= Alpha
 Occup=    0.00000
   1    -0.050506250246568
   2      0.18454763242232
   3      0.11334606901921
   4       0.0449197053402
   5    -0.004809706908048
   6    7.3723407356461e-09
   7    0.00067665585709701
   8     0.040917391115655
   9    8.0452300941114e-09
  10     0.067460882408535
  11     -0.20580527726409
  12     -0.44951302426318
  13       1.0294027085234
  14     0.049596407063771
  15    -7.7342934382706e-09
  16    0.0051019550335184
  17      -0.2494781729851
  18    3.1980216731771e-08
  19    0.0063991385476417
  20    -0.062053863607203
  21      -0.1428912868729
  22    -0.0025695111002819
  23     0.012518689036863
  24    -4.1621134179941e-10
  25    0.0084421942933453
  26     0.037035536861823
  27    4.2340179532726e-09
  28    0.0017066438816308
  29     0.079221621397677
  30      0.13771988333113
  31    -0.0062895090238712
  32    -0.016877751178442
  33    -8.7091061609451e-10
  34     0.048861158629155
  35    -0.082952646223028
  36    5.2655072351153e-09
  37    -0.024399846733983
  38      0.13188452724214
  39      0.12553295326735
  40     0.019815426303272
  41    -0.010343389924656
  42    -0.022371929040147
  43     0.031762539363076
  44    -0.014023961052734
  45     -0.02675888746269
  46    -0.024399837794036
  47      0.13188477245663
  48      0.12553298920573
  49     0.019815430475767
  50    -0.010343364911454
  51     0.022371887286117
  52      0.03176255948916
  53    -0.014023966957105
  54     0.026758903366839
 Sym= A
 Ene=              13
 Spin= Alpha
 Occup=    0.00000
   1    -0.0017068523430059
   2    -0.079223463040781
   3     -0.13772164390981
   4     -0.01687807200996
   5    -0.0062896316466596
   6    -2.7717124945836e-09
   7    -0.082953926688423
   8      0.04886133014537
   9    -3.9549594558356e-09
  10    -0.067458045114059
  11      0.20581261479297
  12      0.44952007949387
  13     0.049597042421566
  14       1.0294016950567
  15    5.4586145017032e-09
  16     -0.24948267817082
  17    0.0051060711749859
  18    -2.8464627370159e-08
  19    -0.0063990819337278
  20     0.062054018424252
  21      0.14289284714265
  22     0.012518716882041
  23    -0.0025695410113913
  24    -6.7961443178772e-11
  25     0.037035701092603
  26    0.0084421229358143
  27    -1.7067861898086e-09
  28     0.050506523017719
  29     -0.18455011798195
  30     -0.11334784119374
  31    -0.0048096813069069
  32     0.044919828565742
  33    -3.6164794162371e-09
  34     0.040917398574628
  35    0.00067785421530241
  36    -5.1108820017333e-09
  37     0.024399756225972
  38     -0.13188673085648
  39     -0.12553474612293
  40    -0.010343482702403
  41     0.019815536959917
  42     0.022372147066032
  43    -0.014024603256961
  44     0.031763248707173
  45     0.026759701916365
  46     0.024399840622899
  47     -0.13188688827828
  48     -0.12553477429255
  49    -0.010343460387649
  50     0.019815544346034
  51     -0.02237210618086
  52    -0.014024611310582
  53     0.031763267679627
  54    -0.026759710693684
 Sym= A
 Ene=              14
 Spin= Alpha
 Occup=    0.00000
   1    4.5431836802857e-08
   2    -8.2821404615622e-08
   3    -1.1058722298585e-07
   4    -2.3464248956506e-08
   5    -9.4083339392386e-09
   6    0.0094720765601669
   7    -8.182664329943e-08
   8    1.5257378390806e-08
   9     0.017738626590203
  10    -3.6754272844869e-07
  11    1.132602837879e-07
  12    4.8753219800725e-07
  13    7.1779634723764e-08
  14    -7.249950591484e-08
  15        1.078998920449
  16    -3.3839584035135e-07
  17    3.4490059701572e-07
  18     -0.24437635556886
  19    -2.2410593363856e-08
  20    -1.5851834661158e-08
  21    1.0415445994578e-07
  22    -2.3607741528462e-09
  23    1.5137001344502e-09
  24    0.0099491783815201
  25    1.623366262958e-08
  26    -1.4653561385555e-08
  27     0.045477764474692
  28    -2.3098901481318e-08
  29    -1.4931075339835e-07
  30    -1.1916924465535e-07
  31    8.174746726744e-09
  32    2.7068508048215e-08
  33    0.0094721079350359
  34    -1.3740579584884e-08
  35    8.674434692689e-08
  36     0.017738637976174
  37      0.03692030621274
  38    -0.074477099107977
  39     0.017234752725166
  40    -0.013838523247525
  41     0.013838531715506
  42    0.0084713321515656
  43     0.060830438457548
  44    -0.060830430085641
  45    0.0037513750062165
  46    -0.036920325756249
  47     0.074476847436404
  48    -0.017235003486708
  49     0.013838471778827
  50    -0.013838483381831
  51    0.0084712679038167
  52    -0.060830551773862
  53      0.06083054776302
  54    0.0037512461809041
 Sym= A
 Ene=              15
 Spin= Alpha
 Occup=    0.00000
   1    -0.088712439403487
   2       0.7160925516539
   3      0.41898068336713
   4      0.12088037684069
   5     0.025003901116154
   6    -1.525199467233e-08
   7        0.606177645377
   8     -0.26556073283005
   9    1.1458714565424e-08
  10     0.092842380602449
  11     -0.36243781106481
  12     -0.53703412867305
  13     -0.39238596531724
  14    -0.048991320984312
  15    2.1155705877322e-07
  16          1.8841970835
  17      0.14745094089315
  18    4.8422102380119e-08
  19    -0.0021105511373769
  20    -0.023066537627682
  21    -0.094806315736975
  22    0.0017843720329466
  23     0.015977041451184
  24    1.0329637101348e-08
  25     -0.13704481428779
  26    -0.066009132328808
  27    -1.965048727551e-08
  28      0.01333868528865
  29     -0.14588285104833
  30     -0.12732948227712
  31    -0.0029252861063052
  32    0.0029434402473289
  33    3.8437069400769e-09
  34     -0.26515743719787
  35       0.1217938936658
  36    5.5817126660832e-09
  37    -0.037686000328798
  38      0.28510569427794
  39      0.14582583371655
  40     0.023491255516911
  41    -0.021512634607168
  42    -0.051571483897878
  43     0.095910457754134
  44     -0.14648306050219
  45     -0.17111309557554
  46    -0.037686755910714
  47      0.28510537851673
  48      0.14582583322652
  49     0.023491238177432
  50    -0.021512649618419
  51     0.051571405539893
  52     0.095910445573568
  53     -0.14648308757812
  54       0.1711130898263
 Sym= A
 Ene=              16
 Spin= Alpha
 Occup=    0.00000
   1    -0.013340355638812
   2      0.14588342954081
   3      0.12732898413527
   4    0.0029432366921722
   5    -0.0029254654756787
   6    1.630345663972e-08
   7      0.12179405194706
   8     -0.26515734536902
   9    -8.1437053883652e-09
  10    -0.092840979281003
  11      0.36244253669845
  12      0.53703851727929
  13    -0.048989316484938
  14     -0.39238502763165
  15    -2.2291747002718e-07
  16       0.1474500218698
  17       1.8842016297133
  18    -9.8324289677609e-09
  19    0.0021104795094637
  20     0.023066599188025
  21      0.09480725306241
  22     0.015977140624513
  23    0.0017844508910303
  24    -1.1337493063651e-08
  25    -0.066009017594722
  26     -0.13704484332974
  27    1.9012621020388e-08
  28      0.08871402472715
  29     -0.71609571394742
  30     -0.41898239458595
  31     0.025003834782637
  32      0.12088050874666
  33    -5.7479968585168e-09
  34     -0.26556077726334
  35      0.60617937602823
  36    -5.0966467640805e-09
  37     0.037685976629153
  38     -0.28510704551692
  39     -0.14582695198731
  40    -0.021512660187219
  41     0.023491362797641
  42     0.051571638562781
  43     -0.14648334041439
  44      0.09591106216794
  45       0.1711136154477
  46     0.037686754062653
  47     -0.28510669582053
  48     -0.14582692335807
  49    -0.021512632950136
  50      0.02349139084537
  51     -0.05157155753432
  52     -0.14648330930243
  53     0.095911075298374
  54     -0.17111360041078
 Sym= A
 Ene=              17
 Spin= Alpha
 Occup=    0.00000
   1    4.0975449460661e-09
   2    -1.4452306581695e-07
   3    -1.1247833963995e-07
   4    -1.9664056791681e-08
   5    -5.6828927883847e-09
   6    0.0019786712601157
   7    -8.8621162455887e-08
   8    1.0524424035514e-08
   9    -0.050572434797111
  10    -7.174249169554e-08
  11    3.1233106484037e-07
  12    4.1440253744673e-07
  13    5.6983674525308e-08
  14    -5.0250378535043e-08
  15     -0.44137584071901
  16    -3.1575018603129e-07
  17     2.79481528848e-07
  18       2.0316498465655
  19    2.1122493466303e-08
  20    1.7257731305804e-08
  21    8.9991780520944e-08
  22    1.5180043006151e-09
  23    -3.2315431156252e-09
  24     0.017761501874458
  25    1.3928909751527e-08
  26    -9.1282427489189e-09
  27     -0.20305390412241
  28    2.8002862330317e-10
  29    -1.3075441723178e-07
  30    -1.071632669577e-07
  31    3.9339023723632e-09
  32    1.9215822469479e-08
  33    0.0019786828435133
  34    -2.645322420205e-09
  35    7.6575520255873e-08
  36    -0.050572429627111