[Molden Format]
made by pyscf v[2.0.1]
[Atoms] (AU)
C   1   6   -12.96446266473323    -0.82707338726680     0.00000000000000
C   2   6   -13.30706186601933     1.79016470768469     0.00000000000000
C   3   6   -10.53821237370529    -1.85986082750791     0.00000000000000
C   4   6   -11.17974231281547     3.35290792495641     0.00000000000000
C   5   6    -8.36309906903577    -0.32142676666723     0.00000000000000
C   6   6    -8.75639895309194     2.31345854363535     0.00000000000000
C   7   6    -5.76644016962649    -1.44258163436937     0.00000000000000
C   8   6    -5.38961479565901    -4.07621596506373     0.00000000000000
C   9   6    -2.95570955650329    -5.08096852097147     0.00000000000000
C   10   6    -0.84112333678574    -3.51193184541908     0.00000000000000
C   11   6    -1.12013366216107    -0.86586903847088     0.00000000000000
C   12   6    -3.59823506116150     0.09549522854951     0.00000000000000
H   13   1   -15.20541388925464     2.59964695004217     0.00000000000000
H   14   1   -10.35981099482530    -3.91099447423649     0.00000000000000
H   15   1   -11.39993034415081     5.40555505541686     0.00000000000000
H   16   1    -7.15259053846937     3.60490683939976     0.00000000000000
H   17   1    -6.98895030904707    -5.37162179878855     0.00000000000000
H   18   1    -2.70195054245478    -7.12936097577027     0.00000000000000
H   19   1     1.02540315437362    -4.37814711554208     0.00000000000000
H   20   1    -3.84909629339259     2.13178234629333     0.00000000000000
H   21   1   -14.60015047089398    -2.08671407141706     0.00000000000000
H   22   1     0.42896783027627     0.31885348899786     0.00000000000000
[GTO]
1 0
 s    8 1.00
                  6665  0.00069158396281299
                  1000  0.0053257961529341
                   228   0.027060721042034
                 64.71    0.10165684614077
                 21.06     0.2745748236174
                 7.495    0.44829431892377
                 2.797    0.28490261071525
                0.5215   0.015194859206082
 s    8 1.00
                  6665  -0.00029326965268655
                  1000  -0.0023180354739745
                   228  -0.011499786038565
                 64.71  -0.046826727009787
                 21.06   -0.12846616875047
                 7.495   -0.30126627246289
                 2.797   -0.25563070233011
                0.5215      1.093793361012
 s    1 1.00
                0.1596                   1
 p    3 1.00
                 9.439   0.056979251590039
                 2.002    0.31320721150073
                0.5456    0.76037674173753
 p    1 1.00
                0.1517                   1
 d    1 1.00
                  0.55                   1

2 0
 s    8 1.00
                  6665  0.00069158396281299
                  1000  0.0053257961529341
                   228   0.027060721042034
                 64.71    0.10165684614077
                 21.06     0.2745748236174
                 7.495    0.44829431892377
                 2.797    0.28490261071525
                0.5215   0.015194859206082
 s    8 1.00
                  6665  -0.00029326965268655
                  1000  -0.0023180354739745
                   228  -0.011499786038565
                 64.71  -0.046826727009787
                 21.06   -0.12846616875047
                 7.495   -0.30126627246289
                 2.797   -0.25563070233011
                0.5215      1.093793361012
 s    1 1.00
                0.1596                   1
 p    3 1.00
                 9.439   0.056979251590039
                 2.002    0.31320721150073
                0.5456    0.76037674173753
 p    1 1.00
                0.1517                   1
 d    1 1.00
                  0.55                   1

3 0
 s    8 1.00
                  6665  0.00069158396281299
                  1000  0.0053257961529341
                   228   0.027060721042034
                 64.71    0.10165684614077
                 21.06     0.2745748236174
                 7.495    0.44829431892377
                 2.797    0.28490261071525
                0.5215   0.015194859206082
 s    8 1.00
                  6665  -0.00029326965268655
                  1000  -0.0023180354739745
                   228  -0.011499786038565
                 64.71  -0.046826727009787
                 21.06   -0.12846616875047
                 7.495   -0.30126627246289
                 2.797   -0.25563070233011
                0.5215      1.093793361012
 s    1 1.00
                0.1596                   1
 p    3 1.00
                 9.439   0.056979251590039
                 2.002    0.31320721150073
                0.5456    0.76037674173753
 p    1 1.00
                0.1517                   1
 d    1 1.00
                  0.55                   1

4 0
 s    8 1.00
                  6665  0.00069158396281299
                  1000  0.0053257961529341
                   228   0.027060721042034
                 64.71    0.10165684614077
                 21.06     0.2745748236174
                 7.495    0.44829431892377
                 2.797    0.28490261071525
                0.5215   0.015194859206082
 s    8 1.00
                  6665  -0.00029326965268655
                  1000  -0.0023180354739745
                   228  -0.011499786038565
                 64.71  -0.046826727009787
                 21.06   -0.12846616875047
                 7.495   -0.30126627246289
                 2.797   -0.25563070233011
                0.5215      1.093793361012
 s    1 1.00
                0.1596                   1
 p    3 1.00
                 9.439   0.056979251590039
                 2.002    0.31320721150073
                0.5456    0.76037674173753
 p    1 1.00
                0.1517                   1
 d    1 1.00
                  0.55                   1

5 0
 s    8 1.00
                  6665  0.00069158396281299
                  1000  0.0053257961529341
                   228   0.027060721042034
                 64.71    0.10165684614077
                 21.06     0.2745748236174
                 7.495    0.44829431892377
                 2.797    0.28490261071525
                0.5215   0.015194859206082
 s    8 1.00
                  6665  -0.00029326965268655
                  1000  -0.0023180354739745
                   228  -0.011499786038565
                 64.71  -0.046826727009787
                 21.06   -0.12846616875047
                 7.495   -0.30126627246289
                 2.797   -0.25563070233011
                0.5215      1.093793361012
 s    1 1.00
                0.1596                   1
 p    3 1.00
                 9.439   0.056979251590039
                 2.002    0.31320721150073
                0.5456    0.76037674173753
 p    1 1.00
                0.1517                   1
 d    1 1.00
                  0.55                   1

6 0
 s    8 1.00
                  6665  0.00069158396281299
                  1000  0.0053257961529341
                   228   0.027060721042034
                 64.71    0.10165684614077
                 21.06     0.2745748236174
                 7.495    0.44829431892377
                 2.797    0.28490261071525
                0.5215   0.015194859206082
 s    8 1.00
                  6665  -0.00029326965268655
                  1000  -0.0023180354739745
                   228  -0.011499786038565
                 64.71  -0.046826727009787
                 21.06   -0.12846616875047
                 7.495   -0.30126627246289
                 2.797   -0.25563070233011
                0.5215      1.093793361012
 s    1 1.00
                0.1596                   1
 p    3 1.00
                 9.439   0.056979251590039
                 2.002    0.31320721150073
                0.5456    0.76037674173753
 p    1 1.00
                0.1517                   1
 d    1 1.00
                  0.55                   1

7 0
 s    8 1.00
                  6665  0.00069158396281299
                  1000  0.0053257961529341
                   228   0.027060721042034
                 64.71    0.10165684614077
                 21.06     0.2745748236174
                 7.495    0.44829431892377
                 2.797    0.28490261071525
                0.5215   0.015194859206082
 s    8 1.00
                  6665  -0.00029326965268655
                  1000  -0.0023180354739745
                   228  -0.011499786038565
                 64.71  -0.046826727009787
                 21.06   -0.12846616875047
                 7.495   -0.30126627246289
                 2.797   -0.25563070233011
                0.5215      1.093793361012
 s    1 1.00
                0.1596                   1
 p    3 1.00
                 9.439   0.056979251590039
                 2.002    0.31320721150073
                0.5456    0.76037674173753
 p    1 1.00
                0.1517                   1
 d    1 1.00
                  0.55                   1

8 0
 s    8 1.00
                  6665  0.00069158396281299
                  1000  0.0053257961529341
                   228   0.027060721042034
                 64.71    0.10165684614077
                 21.06     0.2745748236174
                 7.495    0.44829431892377
                 2.797    0.28490261071525
                0.5215   0.015194859206082
 s    8 1.00
                  6665  -0.00029326965268655
                  1000  -0.0023180354739745
                   228  -0.011499786038565
                 64.71  -0.046826727009787
                 21.06   -0.12846616875047
                 7.495   -0.30126627246289
                 2.797   -0.25563070233011
                0.5215      1.093793361012
 s    1 1.00
                0.1596                   1
 p    3 1.00
                 9.439   0.056979251590039
                 2.002    0.31320721150073
                0.5456    0.76037674173753
 p    1 1.00
                0.1517                   1
 d    1 1.00
                  0.55                   1

9 0
 s    8 1.00
                  6665  0.00069158396281299
                  1000  0.0053257961529341
                   228   0.027060721042034
                 64.71    0.10165684614077
                 21.06     0.2745748236174
                 7.495    0.44829431892377
                 2.797    0.28490261071525
                0.5215   0.015194859206082
 s    8 1.00
                  6665  -0.00029326965268655
                  1000  -0.0023180354739745
                   228  -0.011499786038565
                 64.71  -0.046826727009787
                 21.06   -0.12846616875047
                 7.495   -0.30126627246289
                 2.797   -0.25563070233011
                0.5215      1.093793361012
 s    1 1.00
                0.1596                   1
 p    3 1.00
                 9.439   0.056979251590039
                 2.002    0.31320721150073
                0.5456    0.76037674173753
 p    1 1.00
                0.1517                   1
 d    1 1.00
                  0.55                   1

10 0
 s    8 1.00
                  6665  0.00069158396281299
                  1000  0.0053257961529341
                   228   0.027060721042034
                 64.71    0.10165684614077
                 21.06     0.2745748236174
                 7.495    0.44829431892377
                 2.797    0.28490261071525
                0.5215   0.015194859206082
 s    8 1.00
                  6665  -0.00029326965268655
                  1000  -0.0023180354739745
                   228  -0.011499786038565
                 64.71  -0.046826727009787
                 21.06   -0.12846616875047
                 7.495   -0.30126627246289
                 2.797   -0.25563070233011
                0.5215      1.093793361012
 s    1 1.00
                0.1596                   1
 p    3 1.00
                 9.439   0.056979251590039
                 2.002    0.31320721150073
                0.5456    0.76037674173753
 p    1 1.00
                0.1517                   1
 d    1 1.00
                  0.55                   1

11 0
 s    8 1.00
                  6665  0.00069158396281299
                  1000  0.0053257961529341
                   228   0.027060721042034
                 64.71    0.10165684614077
                 21.06     0.2745748236174
                 7.495    0.44829431892377
                 2.797    0.28490261071525
                0.5215   0.015194859206082
 s    8 1.00
                  6665  -0.00029326965268655
                  1000  -0.0023180354739745
                   228  -0.011499786038565
                 64.71  -0.046826727009787
                 21.06   -0.12846616875047
                 7.495   -0.30126627246289
                 2.797   -0.25563070233011
                0.5215      1.093793361012
 s    1 1.00
                0.1596                   1
 p    3 1.00
                 9.439   0.056979251590039
                 2.002    0.31320721150073
                0.5456    0.76037674173753
 p    1 1.00
                0.1517                   1
 d    1 1.00
                  0.55                   1

12 0
 s    8 1.00
                  6665  0.00069158396281299
                  1000  0.0053257961529341
                   228   0.027060721042034
                 64.71    0.10165684614077
                 21.06     0.2745748236174
                 7.495    0.44829431892377
                 2.797    0.28490261071525
                0.5215   0.015194859206082
 s    8 1.00
                  6665  -0.00029326965268655
                  1000  -0.0023180354739745
                   228  -0.011499786038565
                 64.71  -0.046826727009787
                 21.06   -0.12846616875047
                 7.495   -0.30126627246289
                 2.797   -0.25563070233011
                0.5215      1.093793361012
 s    1 1.00
                0.1596                   1
 p    3 1.00
                 9.439   0.056979251590039
                 2.002    0.31320721150073
                0.5456    0.76037674173753
 p    1 1.00
                0.1517                   1
 d    1 1.00
                  0.55                   1

13 0
 s    3 1.00
                 13.01   0.033498726389998
                 1.962    0.23480080117413
                0.4446     0.8136829578829
 s    1 1.00
                 0.122                   1
 p    1 1.00
                 0.727                   1

14 0
 s    3 1.00
                 13.01   0.033498726389998
                 1.962    0.23480080117413
                0.4446     0.8136829578829
 s    1 1.00
                 0.122                   1
 p    1 1.00
                 0.727                   1

15 0
 s    3 1.00
                 13.01   0.033498726389998
                 1.962    0.23480080117413
                0.4446     0.8136829578829
 s    1 1.00
                 0.122                   1
 p    1 1.00
                 0.727                   1

16 0
 s    3 1.00
                 13.01   0.033498726389998
                 1.962    0.23480080117413
                0.4446     0.8136829578829
 s    1 1.00
                 0.122                   1
 p    1 1.00
                 0.727                   1

17 0
 s    3 1.00
                 13.01   0.033498726389998
                 1.962    0.23480080117413
                0.4446     0.8136829578829
 s    1 1.00
                 0.122                   1
 p    1 1.00
                 0.727                   1

18 0
 s    3 1.00
                 13.01   0.033498726389998
                 1.962    0.23480080117413
                0.4446     0.8136829578829
 s    1 1.00
                 0.122                   1
 p    1 1.00
                 0.727                   1

19 0
 s    3 1.00
                 13.01   0.033498726389998
                 1.962    0.23480080117413
                0.4446     0.8136829578829
 s    1 1.00
                 0.122                   1
 p    1 1.00
                 0.727                   1

20 0
 s    3 1.00
                 13.01   0.033498726389998
                 1.962    0.23480080117413
                0.4446     0.8136829578829
 s    1 1.00
                 0.122                   1
 p    1 1.00
                 0.727                   1

21 0
 s    3 1.00
                 13.01   0.033498726389998
                 1.962    0.23480080117413
                0.4446     0.8136829578829
 s    1 1.00
                 0.122                   1
 p    1 1.00
                 0.727                   1

22 0
 s    3 1.00
                 13.01   0.033498726389998
                 1.962    0.23480080117413
                0.4446     0.8136829578829
 s    1 1.00
                 0.122                   1
 p    1 1.00
                 0.727                   1

[5d]
[7f]
[9g]

[MO]
 Sym= A
 Ene=               0
 Spin= Alpha
 Occup=    1.00000
   1    -2.1937552815162e-17
   2    1.1655001589782e-16
   3    1.0410480257807e-15
   4    5.793638630753e-16
   5    4.9283653094457e-16
   6      0.22017504847251
   7    -2.2591522172063e-16
   8    7.5566140079546e-16
   9      0.13300155408376
  10    -1.3363359552401e-16
  11     0.012365787365722
  12    0.0097979283576589
  13    5.0802447031408e-16
  14    1.8507704785257e-16
  15    -6.9552680275252e-17
  16    -3.4244532069623e-16
  17    -2.2982237706471e-16
  18    1.8693135335389e-16
  19    4.9984560845331e-16
  20      0.22266791436135
  21    -1.7349947790388e-15
  22    5.4816578491024e-16
  23      0.13376123772993
  24    -3.0037987691233e-16
  25     0.015028597786344
  26    -0.0064215203558305
  27    -1.1665631702826e-16
  28    -9.8355185183555e-17
  29    -3.2740213975393e-17
  30    1.2231003183827e-16
  31    -1.6502363609357e-17
  32    4.5101892170489e-16
  33    3.233344982356e-16
  34      0.21173949942009
  35    8.0489824996387e-16
  36    -2.9451227782954e-16
  37      0.12609309833396
  38    -1.1179163209867e-16
  39    -0.0025445315567403
  40      0.01502033877633
  41    -7.1136691942609e-17
  42    1.3943037698116e-16
  43    -2.2250098823066e-16
  44    -1.0854687256067e-16
  45    2.4302007279586e-15
  46    -2.2592898628899e-16
  47    1.5934681643455e-16
  48      0.22015423295098
  49    1.2246689203677e-15
  50    -8.6233936797422e-16
  51      0.13299391523029
  52    1.7081666262107e-17
  53    0.0014772506988884
  54    -0.015714943286737
  55    -3.5273493189609e-16
  56    -1.1220643378999e-16
  57    3.9841390851713e-16
  58    3.8320862791438e-16
  59    -6.3702398251599e-15
  60    -1.7779613222542e-16
  61    3.5586654126176e-16
  62      0.20696755823891
  63    -2.0239943719279e-15
  64    6.1377162266808e-16
  65      0.12087129731419
  66    -5.3572354977261e-17
  67    -0.012577466142629
  68    0.0053495579595844
  69    -2.418050362566e-16
  70    -1.2766080074506e-16
  71    2.329662442248e-18
  72    -6.9878409506532e-18
  73    -7.705676173052e-16
  74    1.0908084676002e-16
  75    -1.9092082624713e-17
  76      0.21175195223566
  77    1.1230571921554e-15
  78    -1.131647406614e-15
  79      0.12604465390384
  80    1.3457029864412e-16
  81    -0.012612825554452
  82    -0.0085511377380964
  83    7.1888827730173e-17
  84    1.8610390633973e-16
  85    -5.1754861863943e-16
  86    -3.9401600360234e-16
  87    3.8004700440502e-15
  88    -8.0319461448719e-17
  89    1.6560921845848e-16
  90     0.024227481951517
  91    -3.1251335814115e-15
  92    3.3206518501483e-15
  93    -0.0018849809257286
  94    -3.8985369116997e-17
  95    -0.0096799373250451
  96    0.0041501736105516
  97    2.4376369085906e-17
  98    -1.3402812158764e-16
  99    -1.7801345538585e-16
 100    -3.8779064024822e-16
 101    7.2828509990624e-16
 102    -4.8315097913176e-17
 103    -7.1586918030109e-17
 104    -0.0099112487725373
 105    -5.9027804337263e-16
 106    1.3850652011473e-15
 107    -0.011043334356163
 108    -1.6082542978888e-16
 109    -0.00083931557426354
 110    0.0015169214700679
 111    -1.8173352679293e-16
 112    -2.6617925201542e-16
 113    -1.1115953094935e-16
 114    1.9987786833384e-16
 115    7.0553344786904e-16
 116    2.942409967644e-16
 117    -8.3897394591121e-18
 118    -0.0062527258959273
 119    -1.7437828694757e-15
 120    1.1533086744607e-15
 121    -0.0045328749423741
 122    -1.1833611078567e-18
 123    0.0009335024652252
 124    -0.00064078510866454
 125    -1.1294262237435e-16
 126    2.6195839100074e-16
 127    5.1749983287213e-17
 128    1.2528627174386e-17
 129    -4.5491034544615e-16
 130    5.3182663434357e-17
 131    -8.4402783347347e-19
 132    -5.876968695043e-05
 133    1.7622919317392e-16
 134    -4.5160141744122e-16
 135    0.0046127243756156
 136    1.557702984277e-16
 137    0.00051268430689872
 138    -0.00024056749935028
 139    -3.1182503832868e-16
 140    -3.4291726709963e-19
 141    -2.2198045221304e-17
 142    7.2978783285825e-17
 143    -1.9358646723911e-15
 144    -1.5203327958128e-16
 145    -7.8766792622966e-17
 146    -0.0065165078640053
 147    4.9706355746886e-16
 148    -7.398869014309e-16
 149    -0.0048001703194497
 150    1.8510169919459e-16
 151    0.0011011660864282
 152    -0.00020132468240212
 153    -8.4525107459025e-17
 154    1.9628420890324e-16
 155    1.6018908841077e-16
 156    2.6013831095899e-16
 157    -2.3010130746047e-16
 158    -4.0353977653139e-16
 159    -1.2121029913643e-16
 160     -0.01028137232564
 161    3.1828445599001e-15
 162    -1.0115409518086e-15
 163    -0.011485371197471
 164    -4.8359930030453e-17
 165    -0.0017038266941368
 166    -0.00043928275620881
 167    8.2936729391995e-17
 168    -1.8220039322858e-16
 169    -7.452778900995e-17
 170    -1.6822136587664e-15
 171    1.3724743478717e-16
 172    6.1478007231103e-17
 173    0.0076365955946374
 174    -3.4727500271344e-16
 175    7.346952064321e-16
 176    7.9583549722059e-18
 177    -1.6827133455637e-16
 178    0.0072884499657907
 179    2.7419815895918e-18
 180    6.0753833411203e-17
 181    1.3833210734714e-16
 182    7.1648019644732e-17
 183    0.0074365520746396
 184    1.0696941508545e-16
 185    -2.0903801935088e-16
 186    1.7420813310486e-16
 187    2.3695463723862e-16
 188    0.0072910493126303
 189    -1.0805938802238e-16
 190    -3.1401750348829e-16
 191    1.5013368173933e-17
 192    1.899918600326e-16
 193    -4.120312967759e-05
 194    -8.1115567114719e-17
 195    1.0702795832005e-15
 196    1.884011968032e-16
 197    5.6448886705008e-17
 198    -0.00019809388683842
 199    3.8960000352805e-16
 200    -4.063678651658e-17
 201    -1.2622872665755e-16
 202    2.7532705264358e-17
 203    6.8804523166729e-05
 204    2.9204092834083e-16
 205    8.1294501149048e-16
 206    -1.3551440701038e-16
 207    -6.2491337904959e-17
 208    -4.4118150895353e-05
 209    -2.6493524202376e-16
 210    9.1968184786668e-16
 211    -4.2389062907089e-17
 212    -2.3073568183913e-16
 213    0.0074363939346394
 214    4.8364745169475e-17
 215    2.290543075312e-16
 216    -1.0610768422243e-16
 217    -1.4471895470105e-16
 218    -0.00024392880534046
 Sym= A
 Ene=               1
 Spin= Alpha
 Occup=    1.00000
   1    2.4499610765449e-16
   2    2.2742512017755e-16
   3    -3.8841060997726e-15
   4    3.4349570065719e-16
   5    3.6943632695493e-16
   6      0.15185938028173
   7    1.7215174770986e-15
   8    -3.4785612615198e-15
   9      0.12171067328505
  10    2.7170108641693e-17
  11    -0.011252120153776
  12     0.024667133736578
  13    2.4159166146011e-16
  14    3.1704911175501e-16
  15    -5.6233829531291e-16
  16    -8.8691598344539e-16
  17    7.012161403399e-15
  18    -2.1685322023297e-16
  19    3.1986407364472e-16
  20      0.31609690378344
  21    7.1363955488775e-16
  22    -3.8110691068282e-15
  23      0.25846114044931
  24    3.3004755530562e-17
  25     0.011599919116432
  26    -0.0048332988445997
  27    -1.6966609939903e-16
  28    -1.2479776320875e-16
  29    5.0368598881135e-16
  30    8.0665465445917e-16
  31    -2.4780813536016e-15
  32    -5.535341504082e-17
  33    2.6634197283265e-16
  34      -0.1666809047568
  35    1.2957529724688e-15
  36    -7.5618188296371e-16
  37     -0.13596457428496
  38    -1.3826813191797e-16
  39    -0.025165026292175
  40    -0.0096622983143675
  41    -2.9652812789379e-16
  42    2.1669896275453e-16
  43    3.9251533309311e-16
  44    9.0678712713828e-16
  45    -4.4679825935574e-15
  46    -1.0967046386569e-16
  47    -8.4785574523716e-17
  48      0.15397258946871
  49    -1.1892515149429e-15
  50    1.7336941705318e-15
  51      0.12335677296634
  52    -1.5167136713725e-16
  53    -0.025468653855932
  54    -0.0090014003332768
  55    -1.5954242689583e-17
  56    3.3426482426941e-17
  57    -3.7894922348059e-17
  58    -3.9105392419596e-17
  59    2.0855888075979e-15
  60    -2.7379282716797e-16
  61    1.9249471895269e-16
  62     -0.32882603972083
  63    1.4648020077322e-15
  64    1.520203427929e-15
  65     -0.25431155737974
  66    1.2915128235927e-16
  67     0.010154576142703
  68    -0.0041731417908838
  69    -1.6516530077509e-16
  70    1.7488943364614e-16
  71    -1.2901303952072e-16
  72    -4.3660609213206e-16
  73    1.7711758015183e-16
  74    3.1722536815845e-16
  75    -4.0228808315878e-16
  76     -0.16453573714644
  77    -3.4187986724082e-15
  78    1.2658476827561e-15
  79     -0.13414334114535
  80    -3.9170419022093e-17
  81    -0.010548177492171
  82     0.024911423237724
  83    1.7248688000334e-16
  84    1.1985964291222e-16
  85    -2.9812056385309e-16
  86    -5.5803861317409e-16
  87    8.5074279179406e-16
  88    6.9029315758726e-17
  89    -1.7372362571336e-17
  90    -0.024098137712595
  91    -2.662349102257e-16
  92    -2.816771504484e-15
  93    0.0073006029149145
  94    1.2158692048917e-16
  95     0.018880487577032
  96    -0.0080703976362105
  97    2.2662860086795e-16
  98    7.6128800552615e-17
  99    3.6534809739405e-16
 100    3.8193984209116e-16
 101    -2.2052353388837e-15
 102    1.8239552984802e-16
 103    8.379149858335e-17
 104     0.039677257329013
 105    1.4009345936595e-15
 106    -1.1693377855847e-15
 107     0.042182019155136
 108    4.4507365078385e-17
 109    0.0022190672238852
 110    -0.0014158032761899
 111    5.234525369213e-17
 112    -2.6822596023807e-17
 113    1.5172303198698e-16
 114    1.0207242267927e-16
 115    2.0207907251152e-16
 116    -6.9086732554216e-17
 117    -1.1139881831107e-16
 118     0.010121881066936
 119    1.2590059464442e-15
 120    3.3609944585016e-16
 121     0.008861328874574
 122    1.8639354374172e-16
 123    -0.0042574016269508
 124    0.0011936076192442
 125    -2.887636951997e-17
 126    1.8533832945122e-16
 127    8.2963626800206e-17
 128    1.3423911555608e-16
 129    -2.8189608393515e-15
 130    5.6807306800526e-17
 131    -9.955402567079e-17
 132    -0.016835433086153
 133    6.5617693422183e-16
 134    -4.4403024156195e-16
 135     -0.03095898654189
 136    5.6671524517654e-17
 137    -0.0009367693400368
 138    0.00048233838983291
 139    -2.9122228376719e-17
 140    -2.1247762778766e-16
 141    -3.0648927824839e-16
 142    -3.2527606352819e-16
 143    4.8049101305408e-15
 144    2.6928348216977e-17
 145    -1.0253747296764e-16
 146     0.010758003353045
 147    -2.0992991634977e-15
 148    -6.4314817615359e-16
 149    0.0093717411776653
 150    -7.8532670701809e-17
 151    -0.0037531888377247
 152    0.0021497161530533
 153    1.7329193251954e-16
 154    2.9817904493141e-17
 155    -1.431430423948e-16
 156    8.3976660562978e-17
 157    -1.4253437908109e-15
 158    1.6755780979086e-16
 159    -3.3732972879811e-16
 160     0.040572899299997
 161    -3.0402597987932e-15
 162    1.9812079636576e-15
 163      0.04334840679203
 164    8.268555115666e-17
 165    0.0026032959533335
 166    -0.00059626735681654
 167    -6.040348323911e-17
 168    3.1660615721086e-16
 169    1.6650447633273e-16
 170    -6.165499495857e-16
 171    7.5814058452035e-17
 172    2.7705842946224e-17
 173     0.011818917040749
 174    -3.3794373114054e-16
 175    4.5684409989262e-16
 176    3.4382866793005e-17
 177    -2.0940189675168e-16
 178    -0.0062079009347478
 179    3.0973373202889e-17
 180    -1.1639919120392e-17
 181    -7.0620361282628e-17
 182    -8.7909030188914e-17
 183    0.0057909504539632
 184    6.6954655191184e-17
 185    1.6143553598527e-15
 186    7.125455843656e-18
 187    -1.051230594086e-16
 188    -0.0061327693143126
 189    3.8494409802933e-16
 190    4.3994112575199e-16
 191    1.4681707626351e-16
 192    -2.0117913904054e-16
 193    0.0010684118723604
 194    -1.907715657566e-16
 195    -1.5633583064915e-16
 196    -1.3806335167929e-16
 197    -1.4314975743883e-16
 198    0.00020966064134199
 199    -5.9035577499974e-17
 200    1.5106157398426e-16
 201    5.6672262023541e-17
 202    7.0507420660978e-17
 203    -0.00091169513854391
 204    -2.4739518375672e-17
 205    -8.456126259474e-16
 206    -4.8120805411787e-17
 207    -2.3406871056963e-16
 208    0.0010329364205615
 209    5.2055563953842e-17
 210    8.9917860579681e-16
 211    -4.2407822058206e-17
 212    -9.6946122881425e-17
 213    0.0057094552143955
 214    -7.043930134781e-17
 215    7.0480429318661e-16
 216    1.5065704272027e-16
 217    -6.8806474226936e-17
 218    0.00030910044486974
 Sym= A
 Ene=               2
 Spin= Alpha
 Occup=    1.00000
   1    1.2604651373471e-17
   2    1.9259497003526e-16
   3    1.3719350284842e-15
   4    -5.8204417067264e-17
   5    -3.4616236318068e-17
   6     -0.27745284154255
   7    3.8756192551315e-16
   8    3.1415923742174e-15
   9     -0.22269622143398
  10    1.9594505119351e-17
  11    -0.017935426259822
  12    0.0057146529381929
  13    -5.7769757758321e-16
  14    1.8298106768426e-16
  15    -5.1854785098784e-16
  16    -1.0328347611296e-15
  17    -7.0350454434132e-16
  18    -3.7073778563553e-16
  19    1.2645812278579e-16
  20    -0.0012347029016588
  21    3.6863194240385e-16
  22    1.6238653548006e-15
  23    -0.0010196051799497
  24    2.0833984515017e-17
  25     0.011644979375623
  26     0.027389414114907
  27    3.9426966387061e-16
  28    -3.8611670780808e-16
  29    3.9621819299282e-16
  30    6.689101855047e-16