[Molden Format]
made by pyscf v[2.0.1]
[Atoms] (AU)
C   1   6   -12.96446266473323    -0.82707338726680     0.00000000000000
C   2   6   -13.30706186601933     1.79016470768469     0.00000000000000
C   3   6   -10.53821237370529    -1.85986082750791     0.00000000000000
C   4   6   -11.17974231281547     3.35290792495641     0.00000000000000
C   5   6    -8.36309906903577    -0.32142676666723     0.00000000000000
C   6   6    -8.75639895309194     2.31345854363535     0.00000000000000
C   7   6    -5.76644016962649    -1.44258163436937     0.00000000000000
C   8   6    -5.38961479565901    -4.07621596506373     0.00000000000000
C   9   6    -2.95570955650329    -5.08096852097147     0.00000000000000
C   10   6    -0.84112333678574    -3.51193184541908     0.00000000000000
C   11   6    -1.12013366216107    -0.86586903847088     0.00000000000000
C   12   6    -3.59823506116150     0.09549522854951     0.00000000000000
H   13   1   -15.20541388925464     2.59964695004217     0.00000000000000
H   14   1   -10.35981099482530    -3.91099447423649     0.00000000000000
H   15   1   -11.39993034415081     5.40555505541686     0.00000000000000
H   16   1    -7.15259053846937     3.60490683939976     0.00000000000000
H   17   1    -6.98895030904707    -5.37162179878855     0.00000000000000
H   18   1    -2.70195054245478    -7.12936097577027     0.00000000000000
H   19   1     1.02540315437362    -4.37814711554208     0.00000000000000
H   20   1    -3.84909629339259     2.13178234629333     0.00000000000000
H   21   1   -14.60015047089398    -2.08671407141706     0.00000000000000
H   22   1     0.42896783027627     0.31885348899786     0.00000000000000
[GTO]
1 0
 s    8 1.00
                  6665  0.00069158396281299
                  1000  0.0053257961529341
                   228   0.027060721042034
                 64.71    0.10165684614077
                 21.06     0.2745748236174
                 7.495    0.44829431892377
                 2.797    0.28490261071525
                0.5215   0.015194859206082
 s    8 1.00
                  6665  -0.00029326965268655
                  1000  -0.0023180354739745
                   228  -0.011499786038565
                 64.71  -0.046826727009787
                 21.06   -0.12846616875047
                 7.495   -0.30126627246289
                 2.797   -0.25563070233011
                0.5215      1.093793361012
 s    1 1.00
                0.1596                   1
 p    3 1.00
                 9.439   0.056979251590039
                 2.002    0.31320721150073
                0.5456    0.76037674173753
 p    1 1.00
                0.1517                   1
 d    1 1.00
                  0.55                   1

2 0
 s    8 1.00
                  6665  0.00069158396281299
                  1000  0.0053257961529341
                   228   0.027060721042034
                 64.71    0.10165684614077
                 21.06     0.2745748236174
                 7.495    0.44829431892377
                 2.797    0.28490261071525
                0.5215   0.015194859206082
 s    8 1.00
                  6665  -0.00029326965268655
                  1000  -0.0023180354739745
                   228  -0.011499786038565
                 64.71  -0.046826727009787
                 21.06   -0.12846616875047
                 7.495   -0.30126627246289
                 2.797   -0.25563070233011
                0.5215      1.093793361012
 s    1 1.00
                0.1596                   1
 p    3 1.00
                 9.439   0.056979251590039
                 2.002    0.31320721150073
                0.5456    0.76037674173753
 p    1 1.00
                0.1517                   1
 d    1 1.00
                  0.55                   1

3 0
 s    8 1.00
                  6665  0.00069158396281299
                  1000  0.0053257961529341
                   228   0.027060721042034
                 64.71    0.10165684614077
                 21.06     0.2745748236174
                 7.495    0.44829431892377
                 2.797    0.28490261071525
                0.5215   0.015194859206082
 s    8 1.00
                  6665  -0.00029326965268655
                  1000  -0.0023180354739745
                   228  -0.011499786038565
                 64.71  -0.046826727009787
                 21.06   -0.12846616875047
                 7.495   -0.30126627246289
                 2.797   -0.25563070233011
                0.5215      1.093793361012
 s    1 1.00
                0.1596                   1
 p    3 1.00
                 9.439   0.056979251590039
                 2.002    0.31320721150073
                0.5456    0.76037674173753
 p    1 1.00
                0.1517                   1
 d    1 1.00
                  0.55                   1

4 0
 s    8 1.00
                  6665  0.00069158396281299
                  1000  0.0053257961529341
                   228   0.027060721042034
                 64.71    0.10165684614077
                 21.06     0.2745748236174
                 7.495    0.44829431892377
                 2.797    0.28490261071525
                0.5215   0.015194859206082
 s    8 1.00
                  6665  -0.00029326965268655
                  1000  -0.0023180354739745
                   228  -0.011499786038565
                 64.71  -0.046826727009787
                 21.06   -0.12846616875047
                 7.495   -0.30126627246289
                 2.797   -0.25563070233011
                0.5215      1.093793361012
 s    1 1.00
                0.1596                   1
 p    3 1.00
                 9.439   0.056979251590039
                 2.002    0.31320721150073
                0.5456    0.76037674173753
 p    1 1.00
                0.1517                   1
 d    1 1.00
                  0.55                   1

5 0
 s    8 1.00
                  6665  0.00069158396281299
                  1000  0.0053257961529341
                   228   0.027060721042034
                 64.71    0.10165684614077
                 21.06     0.2745748236174
                 7.495    0.44829431892377
                 2.797    0.28490261071525
                0.5215   0.015194859206082
 s    8 1.00
                  6665  -0.00029326965268655
                  1000  -0.0023180354739745
                   228  -0.011499786038565
                 64.71  -0.046826727009787
                 21.06   -0.12846616875047
                 7.495   -0.30126627246289
                 2.797   -0.25563070233011
                0.5215      1.093793361012
 s    1 1.00
                0.1596                   1
 p    3 1.00
                 9.439   0.056979251590039
                 2.002    0.31320721150073
                0.5456    0.76037674173753
 p    1 1.00
                0.1517                   1
 d    1 1.00
                  0.55                   1

6 0
 s    8 1.00
                  6665  0.00069158396281299
                  1000  0.0053257961529341
                   228   0.027060721042034
                 64.71    0.10165684614077
                 21.06     0.2745748236174
                 7.495    0.44829431892377
                 2.797    0.28490261071525
                0.5215   0.015194859206082
 s    8 1.00
                  6665  -0.00029326965268655
                  1000  -0.0023180354739745
                   228  -0.011499786038565
                 64.71  -0.046826727009787
                 21.06   -0.12846616875047
                 7.495   -0.30126627246289
                 2.797   -0.25563070233011
                0.5215      1.093793361012
 s    1 1.00
                0.1596                   1
 p    3 1.00
                 9.439   0.056979251590039
                 2.002    0.31320721150073
                0.5456    0.76037674173753
 p    1 1.00
                0.1517                   1
 d    1 1.00
                  0.55                   1

7 0
 s    8 1.00
                  6665  0.00069158396281299
                  1000  0.0053257961529341
                   228   0.027060721042034
                 64.71    0.10165684614077
                 21.06     0.2745748236174
                 7.495    0.44829431892377
                 2.797    0.28490261071525
                0.5215   0.015194859206082
 s    8 1.00
                  6665  -0.00029326965268655
                  1000  -0.0023180354739745
                   228  -0.011499786038565
                 64.71  -0.046826727009787
                 21.06   -0.12846616875047
                 7.495   -0.30126627246289
                 2.797   -0.25563070233011
                0.5215      1.093793361012
 s    1 1.00
                0.1596                   1
 p    3 1.00
                 9.439   0.056979251590039
                 2.002    0.31320721150073
                0.5456    0.76037674173753
 p    1 1.00
                0.1517                   1
 d    1 1.00
                  0.55                   1

8 0
 s    8 1.00
                  6665  0.00069158396281299
                  1000  0.0053257961529341
                   228   0.027060721042034
                 64.71    0.10165684614077
                 21.06     0.2745748236174
                 7.495    0.44829431892377
                 2.797    0.28490261071525
                0.5215   0.015194859206082
 s    8 1.00
                  6665  -0.00029326965268655
                  1000  -0.0023180354739745
                   228  -0.011499786038565
                 64.71  -0.046826727009787
                 21.06   -0.12846616875047
                 7.495   -0.30126627246289
                 2.797   -0.25563070233011
                0.5215      1.093793361012
 s    1 1.00
                0.1596                   1
 p    3 1.00
                 9.439   0.056979251590039
                 2.002    0.31320721150073
                0.5456    0.76037674173753
 p    1 1.00
                0.1517                   1
 d    1 1.00
                  0.55                   1

9 0
 s    8 1.00
                  6665  0.00069158396281299
                  1000  0.0053257961529341
                   228   0.027060721042034
                 64.71    0.10165684614077
                 21.06     0.2745748236174
                 7.495    0.44829431892377
                 2.797    0.28490261071525
                0.5215   0.015194859206082
 s    8 1.00
                  6665  -0.00029326965268655
                  1000  -0.0023180354739745
                   228  -0.011499786038565
                 64.71  -0.046826727009787
                 21.06   -0.12846616875047
                 7.495   -0.30126627246289
                 2.797   -0.25563070233011
                0.5215      1.093793361012
 s    1 1.00
                0.1596                   1
 p    3 1.00
                 9.439   0.056979251590039
                 2.002    0.31320721150073
                0.5456    0.76037674173753
 p    1 1.00
                0.1517                   1
 d    1 1.00
                  0.55                   1

10 0
 s    8 1.00
                  6665  0.00069158396281299
                  1000  0.0053257961529341
                   228   0.027060721042034
                 64.71    0.10165684614077
                 21.06     0.2745748236174
                 7.495    0.44829431892377
                 2.797    0.28490261071525
                0.5215   0.015194859206082
 s    8 1.00
                  6665  -0.00029326965268655
                  1000  -0.0023180354739745
                   228  -0.011499786038565
                 64.71  -0.046826727009787
                 21.06   -0.12846616875047
                 7.495   -0.30126627246289
                 2.797   -0.25563070233011
                0.5215      1.093793361012
 s    1 1.00
                0.1596                   1
 p    3 1.00
                 9.439   0.056979251590039
                 2.002    0.31320721150073
                0.5456    0.76037674173753
 p    1 1.00
                0.1517                   1
 d    1 1.00
                  0.55                   1

11 0
 s    8 1.00
                  6665  0.00069158396281299
                  1000  0.0053257961529341
                   228   0.027060721042034
                 64.71    0.10165684614077
                 21.06     0.2745748236174
                 7.495    0.44829431892377
                 2.797    0.28490261071525
                0.5215   0.015194859206082
 s    8 1.00
                  6665  -0.00029326965268655
                  1000  -0.0023180354739745
                   228  -0.011499786038565
                 64.71  -0.046826727009787
                 21.06   -0.12846616875047
                 7.495   -0.30126627246289
                 2.797   -0.25563070233011
                0.5215      1.093793361012
 s    1 1.00
                0.1596                   1
 p    3 1.00
                 9.439   0.056979251590039
                 2.002    0.31320721150073
                0.5456    0.76037674173753
 p    1 1.00
                0.1517                   1
 d    1 1.00
                  0.55                   1

12 0
 s    8 1.00
                  6665  0.00069158396281299
                  1000  0.0053257961529341
                   228   0.027060721042034
                 64.71    0.10165684614077
                 21.06     0.2745748236174
                 7.495    0.44829431892377
                 2.797    0.28490261071525
                0.5215   0.015194859206082
 s    8 1.00
                  6665  -0.00029326965268655
                  1000  -0.0023180354739745
                   228  -0.011499786038565
                 64.71  -0.046826727009787
                 21.06   -0.12846616875047
                 7.495   -0.30126627246289
                 2.797   -0.25563070233011
                0.5215      1.093793361012
 s    1 1.00
                0.1596                   1
 p    3 1.00
                 9.439   0.056979251590039
                 2.002    0.31320721150073
                0.5456    0.76037674173753
 p    1 1.00
                0.1517                   1
 d    1 1.00
                  0.55                   1

13 0
 s    3 1.00
                 13.01   0.033498726389998
                 1.962    0.23480080117413
                0.4446     0.8136829578829
 s    1 1.00
                 0.122                   1
 p    1 1.00
                 0.727                   1

14 0
 s    3 1.00
                 13.01   0.033498726389998
                 1.962    0.23480080117413
                0.4446     0.8136829578829
 s    1 1.00
                 0.122                   1
 p    1 1.00
                 0.727                   1

15 0
 s    3 1.00
                 13.01   0.033498726389998
                 1.962    0.23480080117413
                0.4446     0.8136829578829
 s    1 1.00
                 0.122                   1
 p    1 1.00
                 0.727                   1

16 0
 s    3 1.00
                 13.01   0.033498726389998
                 1.962    0.23480080117413
                0.4446     0.8136829578829
 s    1 1.00
                 0.122                   1
 p    1 1.00
                 0.727                   1

17 0
 s    3 1.00
                 13.01   0.033498726389998
                 1.962    0.23480080117413
                0.4446     0.8136829578829
 s    1 1.00
                 0.122                   1
 p    1 1.00
                 0.727                   1

18 0
 s    3 1.00
                 13.01   0.033498726389998
                 1.962    0.23480080117413
                0.4446     0.8136829578829
 s    1 1.00
                 0.122                   1
 p    1 1.00
                 0.727                   1

19 0
 s    3 1.00
                 13.01   0.033498726389998
                 1.962    0.23480080117413
                0.4446     0.8136829578829
 s    1 1.00
                 0.122                   1
 p    1 1.00
                 0.727                   1

20 0
 s    3 1.00
                 13.01   0.033498726389998
                 1.962    0.23480080117413
                0.4446     0.8136829578829
 s    1 1.00
                 0.122                   1
 p    1 1.00
                 0.727                   1

21 0
 s    3 1.00
                 13.01   0.033498726389998
                 1.962    0.23480080117413
                0.4446     0.8136829578829
 s    1 1.00
                 0.122                   1
 p    1 1.00
                 0.727                   1

22 0
 s    3 1.00
                 13.01   0.033498726389998
                 1.962    0.23480080117413
                0.4446     0.8136829578829
 s    1 1.00
                 0.122                   1
 p    1 1.00
                 0.727                   1

[5d]
[7f]
[9g]

[MO]
 Sym= A
 Ene=               0
 Spin= Alpha
 Occup=    1.00000
   1    -3.0708464100961e-17
   2    1.0938107144803e-16
   3    1.1787451569267e-15
   4    5.6522576183803e-16
   5    4.8084846623959e-16
   6      0.21474582203977
   7    -3.0260201437844e-16
   8    9.0083215014691e-16
   9      0.12874972654021
  10    -1.3559961598557e-16
  11     0.012802772092278
  12    0.0088957638602004
  13    4.9751868367201e-16
  14    1.7585641900923e-16
  15    -5.1743556112922e-17
  16    -3.1569730394101e-16
  17    -5.0642306995812e-16
  18    1.9391324700845e-16
  19    4.9004976418739e-16
  20      0.21121478303445
  21    -1.7605267480779e-15
  22    6.9893494168162e-16
  23      0.12416358727942
  24    -3.0208083526944e-16
  25     0.014625985074718
  26    -0.006249397569133
  27    -1.0940735594568e-16
  28    -9.4741082516783e-17
  29    -5.1771961258906e-17
  30    9.051319713677e-17
  31    1.115915248413e-16
  32    4.5084035646943e-16
  33    3.1124563379055e-16
  34      0.21800083776241
  35    7.5677169750155e-16
  36    -2.3457269697826e-16
  37      0.13133997511833
  38    -1.0866679520558e-16
  39    -0.0016965203707245
  40     0.015356322331295
  41    -6.2711044808933e-17
  42     1.37338799321e-16
  43    -2.3642123086814e-16
  44    -1.4396946088541e-16
  45    2.5807564350687e-15
  46    -2.2325868654538e-16
  47    1.6126613463467e-16
  48      0.21472611298316
  49    1.2581912427166e-15
  50    -9.2783697784217e-16
  51      0.12873990682349
  52    2.2025669097918e-17
  53    0.0024311532883625
  54    -0.015406745811105
  55    -3.5017906652193e-16
  56    -1.0919426781956e-16
  57    4.0151125678174e-16
  58    3.8674977872352e-16
  59    -6.4553262187352e-15
  60    -1.6810792609467e-16
  61    3.4661144608185e-16
  62      0.21824244282666
  63    -2.0373804548665e-15
  64    5.4397514382679e-16
  65      0.12977878866739
  66    -5.6858956218469e-17
  67    -0.013186869160772
  68    0.0056103897435268
  69    -2.3938823493907e-16
  70    -1.3486228994659e-16
  71    7.6312401045591e-18
  72    1.1667623282614e-17
  73    -7.5158403304615e-16
  74    9.936315093403e-17
  75    -5.3307693211394e-18
  76      0.21801857826148
  77    1.2392244572505e-15
  78    -1.1762080690656e-15
  79      0.13129867085132
  80    1.3391352261704e-16
  81    -0.012268248732513
  82    -0.0093968614011101
  83    6.4441394970813e-17
  84    1.7950237278061e-16
  85    -5.0414651515197e-16
  86    -3.6883128128751e-16
  87    3.7131276947064e-15
  88    -8.3755807018961e-17
  89    1.6385144487812e-16
  90     0.019440962945408
  91    -3.0881347072691e-15
  92    3.4370781488267e-15
  93    -0.0057092700961771
  94    -4.1657954438588e-17
  95    -0.010456896435793
  96    0.0045009254713365
  97    1.5402722877216e-17
  98    -1.3744476395802e-16
  99    -1.9384920536182e-16
 100    -4.0621277961774e-16
 101    8.4631077193389e-16
 102    -5.4652787317944e-17
 103    -7.7212566540464e-17
 104    -0.013002889633106
 105    -6.5245731685348e-16
 106    1.4483180670622e-15
 107    -0.014459390322212
 108    -1.633299784164e-16
 109    -0.00076253858598321
 110    0.0012158368937789
 111    -1.8393172137155e-16
 112    -2.6266940059977e-16
 113    -1.161763373404e-16
 114    1.9899719586417e-16
 115    7.2592479308952e-16
 116    2.9560696237369e-16
 117    -1.435332601494e-18
 118    -0.0042004720472198
 119    -1.7733992958994e-15
 120    1.1297710590601e-15
 121    -0.0030570930076894
 122    -9.5865798240178e-18
 123    0.0014590275376439
 124    -0.00054304447986565
 125    -1.1722536776015e-16
 126    2.5565713578592e-16
 127    4.7045277181034e-17
 128    1.0423916347606e-18
 129    -3.2364078377503e-16
 130    5.3481454184047e-17
 131    2.3548393139638e-18
 132    0.0047714907376053
 133    1.7340906703407e-16
 134    -4.0138171066551e-16
 135    0.0095431581327461
 136    1.5366070445966e-16
 137    0.00037749619922641
 138    -0.000169231803059
 139    -3.126034895109e-16
 140    6.0970982468739e-18
 141    -1.0165041247129e-17
 142    8.3999487719839e-17
 143    -2.1279485234305e-15
 144    -1.5070127111555e-16
 145    -7.6075306053559e-17
 146    -0.0041559142895875
 147    5.4749742856503e-16
 148    -6.8848916954069e-16
 149    -0.0030536090730784
 150    1.8905764122679e-16
 151    0.0013604571212171
 152    -0.0006306527056958
 153    -9.0367934261454e-17
 154    1.9516510364743e-16
 155    1.6663357068934e-16
 156    2.5734792733654e-16
 157    -2.0762081923665e-16
 158    -4.066421620429e-16
 159    -1.0871064950258e-16
 160    -0.013050660070173
 161    3.2796117247904e-15
 162    -1.0837930271125e-15
 163     -0.01465547226039
 164    -4.7793690196724e-17
 165    -0.0014121786283027
 166    -0.00029818621680146
 167    8.6754618099985e-17
 168    -1.9359909582277e-16
 169    -8.0358164325731e-17
 170    -1.6615524850444e-15
 171    1.3580825870155e-16
 172    5.7605475589076e-17
 173    0.0072040514056085
 174    -3.3706104970588e-16
 175    7.3718883464526e-16
 176    4.9008669050176e-18
 177    -1.5906431720229e-16
 178    0.0075144921436278
 179    1.2976884004348e-18
 180    6.6956189137359e-17
 181    1.4409092827801e-16
 182    7.6529126341101e-17
 183    0.0072331688002802
 184    1.0318796209643e-16
 185    -2.7429816174472e-16
 186    1.7520984947987e-16
 187    2.4348920225051e-16
 188    0.0075181355017227
 189    -1.2177232996188e-16
 190    -3.3646250725574e-16
 191    1.3111615638039e-17
 192    1.950607399984e-16
 193    -0.00016654054036241
 194    -7.9147838395501e-17
 195    1.0701473706775e-15
 196    1.9124603154675e-16
 197    5.9134235428115e-17
 198    -0.00012082967480833
 199    3.8432949924424e-16
 200    -4.9091802756873e-17
 201    -1.2914656500024e-16
 202    2.2412275658118e-17
 203    0.00027787072872153
 204    2.9674698614752e-16
 205    8.414049231147e-16
 206    -1.3386651654921e-16
 207    -5.2897305429755e-17
 208    -0.00015399613458961
 209    -2.6944345046179e-16
 210    8.9125838229757e-16
 211    -3.7522011882564e-17
 212    -2.2796311203094e-16
 213    0.0072330261039118
 214    5.5557216857322e-17
 215    2.0389072307852e-16
 216    -1.1031080947791e-16
 217    -1.3943088757237e-16
 218    -0.00014883845611645
 Sym= A
 Ene=               1
 Spin= Alpha
 Occup=    1.00000
   1    2.4423178458793e-16
   2    2.3248641261185e-16
   3    -3.8523680853878e-15
   4    3.6202925846128e-16
   5    3.8934023877541e-16
   6      0.15946236249041
   7    1.7096528274012e-15
   8    -3.4354066668143e-15
   9      0.12634538136558
  10    2.3440473159837e-17
  11    -0.010793489792457
  12      0.02498768814128
  13    2.6097589214173e-16
  14    3.237118856885e-16
  15    -5.6620976885603e-16
  16    -9.0147201153649e-16
  17    6.9885034629272e-15
  18    -2.1060629304447e-16
  19    3.3712122189612e-16
  20      0.32404347655534
  21    6.5114368532034e-16
  22    -3.7828280102523e-15
  23      0.26287338507919
  24    2.3901956325918e-17
  25     0.012124658542449
  26    -0.0050583707751278
  27    -1.7704890223428e-16
  28    -1.2729122374327e-16
  29    5.0282140271727e-16
  30    8.1062094630087e-16
  31    -2.4877924003728e-15
  32    -4.2184417718108e-17
  33    2.7609677227318e-16
  34     -0.15923226374788
  35    1.2933087108461e-15
  36    -7.6902455311425e-16
  37     -0.13125967533249
  38    -1.4164892443437e-16
  39    -0.025259350491433
  40    -0.0091351075985534
  41    -3.0044783478404e-16
  42    2.2060506236443e-16
  43    3.8362410510425e-16
  44    8.9745358860942e-16
  45    -4.3673984172697e-15
  46    -1.1990640351824e-16
  47    -7.8130253987368e-17
  48      0.16156798054036
  49    -1.1370277038343e-15
  50    1.7064318592336e-15
  51      0.12799155220877
  52    -1.5452783356429e-16
  53    -0.025383569166481
  54    -0.0095542953685486
  55    -2.6290598846505e-17
  56    3.1794701650764e-17
  57    -2.3993614991174e-17
  58    -2.685879239131e-17
  59    1.8664973269674e-15
  60    -2.8374068721614e-16
  61    2.0171295088283e-16
  62     -0.32188748746622
  63    1.4025144969359e-15
  64    1.4848472098015e-15
  65     -0.24986556508982
  66    1.2596362156032e-16
  67    0.0095629247503341
  68    -0.0039233087947697
  69    -1.7331196096265e-16
  70    1.7025236424713e-16
  71    -1.2956894774144e-16
  72    -4.3759466542576e-16
  73    1.7775137687338e-16
  74    3.2368352713023e-16
  75    -4.03496593642e-16
  76     -0.15710779766788
  77    -3.3813128810054e-15
  78    1.1871083568039e-15
  79     -0.12947027073608
  80    -3.6458399571936e-17
  81    -0.010995441209873
  82     0.024616023954182
  83     1.74696023399e-16
  84    1.2434409281962e-16
  85    -3.1503854005586e-16
  86    -5.6627685972768e-16
  87    9.6165523535091e-16
  88    6.5541483138565e-17
  89    -1.0463275810889e-17
  90     -0.02392061377952
  91    -3.5184284006792e-16
  92    -2.6713856780523e-15
  93    0.0054418110394817
  94    1.2126999838596e-16
  95     0.018335943507963
  96    -0.007878189592582
  97    2.2533825459953e-16
  98    7.5331044702289e-17
  99    3.608780905284e-16
 100    3.7267324577701e-16
 101    -2.1341035856116e-15
 102    1.7805168772034e-16
 103    8.1991812835607e-17
 104     0.035172697686771
 105    1.3953356061302e-15
 106    -1.1125348473548e-15
 107     0.040236059955408
 108    3.8855621932996e-17
 109    0.0020339018405995
 110    -0.0014998785484463
 111    4.7740388192603e-17
 112    -3.6626709770237e-17
 113    1.4808915346079e-16
 114    1.0737177989321e-16
 115    2.051280617939e-16
 116    -5.7840270935085e-17
 117    -1.0798759045826e-16
 118    0.0068519894199572
 119     1.21673008473e-15
 120    3.5711716106003e-16
 121    0.0071450025865537
 122    1.8647584450283e-16
 123    -0.0042117373328642
 124    0.00096681018013419
 125    -3.309829721879e-17
 126    1.9529689631435e-16
 127    8.6688216445365e-17
 128    1.3711591514342e-16
 129    -2.861920900183e-15
 130    5.5821204975671e-17
 131    -1.0084561920057e-16
 132    -0.018546615061824
 133    6.529502946388e-16
 134    -4.6465540485369e-16
 135    -0.032560093180525
 136    6.0534880118295e-17
 137    -0.000731018551674
 138    0.00035900361985508
 139    -3.9889850431447e-17
 140    -2.1325445184409e-16
 141    -3.0896472175824e-16
 142    -3.250269480873e-16
 143    4.7326624455338e-15
 144    2.0025570326818e-17
 145    -1.0322564169297e-16
 146    0.0068914554966045
 147    -2.0572691075181e-15
 148    -6.9822916093899e-16
 149      0.00710308870555
 150    -7.4220589252495e-17
 151    -0.0035100327022741
 152    0.0022669489013008
 153    1.691686219966e-16
 154    3.5100026309555e-17
 155    -1.4012312376236e-16
 156    9.3006790642292e-17
 157    -1.4265948223408e-15
 158    1.5271140115804e-16
 159    -3.4094405203843e-16
 160     0.035349679927897
 161    -2.8969939366734e-15
 162    1.9537564141662e-15
 163     0.040827584752114
 164    8.1237409992583e-17
 165    0.0024993710074422
 166    -0.00039423534612992
 167    -5.5407425248927e-17
 168    3.1085623718309e-16
 169    1.6619071955721e-16
 170    -6.7439072340563e-16
 171    8.2837165730161e-17
 172    2.8017479035128e-17
 173     0.012076145497866
 174    -3.4404087990358e-16
 175    4.7213726787523e-16
 176    3.7112614342552e-17
 177    -2.1750365636184e-16
 178    -0.0059462023308518
 179    2.8381460215402e-17
 180    -1.0984007671696e-17
 181    -6.9459890826682e-17
 182    -8.366466696143e-17
 183    0.0060496955787815
 184    7.2150365906985e-17
 185    1.622080777395e-15
 186    1.1220547304809e-17
 187    -9.9374168391893e-17
 188    -0.0058726348220361
 189    3.7705545196777e-16
 190    4.3978536049366e-16
 191    1.4726502845464e-16
 192    -1.968129125898e-16
 193    0.00097467743976529
 194    -1.8960355296422e-16
 195    -1.3066987457232e-16
 196    -1.3494754616517e-16
 197    -1.4129167111519e-16
 198    0.00011303314500493
 199    -4.1746347684347e-17
 200    1.5053412664713e-16
 201    5.3188414216466e-17
 202    7.2457444111409e-17
 203     -0.00101064053778
 204    -1.7948571628929e-17
 205    -8.2052052199402e-16
 206    -4.9649534743654e-17
 207    -2.3463518568104e-16
 208    0.00091438068717506
 209    4.5500354247924e-17
 210    9.3226514520029e-16
 211    -4.3522234370015e-17
 212    -1.0306044580943e-16
 213      0.00596884786609
 214    -6.8330552842815e-17
 215    7.079727896086e-16
 216    1.4659875770293e-16
 217    -7.0109268453835e-17
 218    0.00017416435227645
 Sym= A
 Ene=               2
 Spin= Alpha
 Occup=    1.00000
   1    1.2697362663458e-17
   2    1.927577426787e-16
   3    1.3704174612585e-15
   4    -5.838608418453e-17
   5    -3.4625513189906e-17
   6     -0.27759097557243
   7    3.8709645916229e-16
   8    3.1414494032191e-15
   9      -0.2227103152214
  10    1.9702182811672e-17
  11    -0.017937551056704
  12    0.0057141013325927
  13    -5.7781442517266e-16
  14    1.8302080811849e-16
  15    -5.1858041696233e-16
  16    -1.0328484521781e-15
  17    -7.0303336368406e-16
  18    -3.7085628749923e-16
  19    1.2638816251284e-16
  20    -0.0012612944174914
  21    3.6936547890699e-16
  22    1.6233541031353e-15
  23    -0.0010300879790559
  24    2.0829558179291e-17
  25     0.011643253273499
  26     0.027390139470124
  27    3.9435018795634e-16
  28    -3.86176554297e-16
  29    3.9627660421566e-16
  30    6.6897494162729e-16