[Molden Format]
made by pyscf v[2.0.1]
[Atoms] (AU)
C   1   6   -12.96446266473323    -0.82707338726680     0.00000000000000
C   2   6   -13.30706186601933     1.79016470768469     0.00000000000000
C   3   6   -10.53821237370529    -1.85986082750791     0.00000000000000
C   4   6   -11.17974231281547     3.35290792495641     0.00000000000000
C   5   6    -8.36309906903577    -0.32142676666723     0.00000000000000
C   6   6    -8.75639895309194     2.31345854363535     0.00000000000000
C   7   6    -5.76644016962649    -1.44258163436937     0.00000000000000
C   8   6    -5.38961479565901    -4.07621596506373     0.00000000000000
C   9   6    -2.95570955650329    -5.08096852097147     0.00000000000000
C   10   6    -0.84112333678574    -3.51193184541908     0.00000000000000
C   11   6    -1.12013366216107    -0.86586903847088     0.00000000000000
C   12   6    -3.59823506116150     0.09549522854951     0.00000000000000
H   13   1   -15.20541388925464     2.59964695004217     0.00000000000000
H   14   1   -10.35981099482530    -3.91099447423649     0.00000000000000
H   15   1   -11.39993034415081     5.40555505541686     0.00000000000000
H   16   1    -7.15259053846937     3.60490683939976     0.00000000000000
H   17   1    -6.98895030904707    -5.37162179878855     0.00000000000000
H   18   1    -2.70195054245478    -7.12936097577027     0.00000000000000
H   19   1     1.02540315437362    -4.37814711554208     0.00000000000000
H   20   1    -3.84909629339259     2.13178234629333     0.00000000000000
H   21   1   -14.60015047089398    -2.08671407141706     0.00000000000000
H   22   1     0.42896783027627     0.31885348899786     0.00000000000000
[GTO]
1 0
 s    8 1.00
                  6665  0.00069158396281299
                  1000  0.0053257961529341
                   228   0.027060721042034
                 64.71    0.10165684614077
                 21.06     0.2745748236174
                 7.495    0.44829431892377
                 2.797    0.28490261071525
                0.5215   0.015194859206082
 s    8 1.00
                  6665  -0.00029326965268655
                  1000  -0.0023180354739745
                   228  -0.011499786038565
                 64.71  -0.046826727009787
                 21.06   -0.12846616875047
                 7.495   -0.30126627246289
                 2.797   -0.25563070233011
                0.5215      1.093793361012
 s    1 1.00
                0.1596                   1
 p    3 1.00
                 9.439   0.056979251590039
                 2.002    0.31320721150073
                0.5456    0.76037674173753
 p    1 1.00
                0.1517                   1
 d    1 1.00
                  0.55                   1

2 0
 s    8 1.00
                  6665  0.00069158396281299
                  1000  0.0053257961529341
                   228   0.027060721042034
                 64.71    0.10165684614077
                 21.06     0.2745748236174
                 7.495    0.44829431892377
                 2.797    0.28490261071525
                0.5215   0.015194859206082
 s    8 1.00
                  6665  -0.00029326965268655
                  1000  -0.0023180354739745
                   228  -0.011499786038565
                 64.71  -0.046826727009787
                 21.06   -0.12846616875047
                 7.495   -0.30126627246289
                 2.797   -0.25563070233011
                0.5215      1.093793361012
 s    1 1.00
                0.1596                   1
 p    3 1.00
                 9.439   0.056979251590039
                 2.002    0.31320721150073
                0.5456    0.76037674173753
 p    1 1.00
                0.1517                   1
 d    1 1.00
                  0.55                   1

3 0
 s    8 1.00
                  6665  0.00069158396281299
                  1000  0.0053257961529341
                   228   0.027060721042034
                 64.71    0.10165684614077
                 21.06     0.2745748236174
                 7.495    0.44829431892377
                 2.797    0.28490261071525
                0.5215   0.015194859206082
 s    8 1.00
                  6665  -0.00029326965268655
                  1000  -0.0023180354739745
                   228  -0.011499786038565
                 64.71  -0.046826727009787
                 21.06   -0.12846616875047
                 7.495   -0.30126627246289
                 2.797   -0.25563070233011
                0.5215      1.093793361012
 s    1 1.00
                0.1596                   1
 p    3 1.00
                 9.439   0.056979251590039
                 2.002    0.31320721150073
                0.5456    0.76037674173753
 p    1 1.00
                0.1517                   1
 d    1 1.00
                  0.55                   1

4 0
 s    8 1.00
                  6665  0.00069158396281299
                  1000  0.0053257961529341
                   228   0.027060721042034
                 64.71    0.10165684614077
                 21.06     0.2745748236174
                 7.495    0.44829431892377
                 2.797    0.28490261071525
                0.5215   0.015194859206082
 s    8 1.00
                  6665  -0.00029326965268655
                  1000  -0.0023180354739745
                   228  -0.011499786038565
                 64.71  -0.046826727009787
                 21.06   -0.12846616875047
                 7.495   -0.30126627246289
                 2.797   -0.25563070233011
                0.5215      1.093793361012
 s    1 1.00
                0.1596                   1
 p    3 1.00
                 9.439   0.056979251590039
                 2.002    0.31320721150073
                0.5456    0.76037674173753
 p    1 1.00
                0.1517                   1
 d    1 1.00
                  0.55                   1

5 0
 s    8 1.00
                  6665  0.00069158396281299
                  1000  0.0053257961529341
                   228   0.027060721042034
                 64.71    0.10165684614077
                 21.06     0.2745748236174
                 7.495    0.44829431892377
                 2.797    0.28490261071525
                0.5215   0.015194859206082
 s    8 1.00
                  6665  -0.00029326965268655
                  1000  -0.0023180354739745
                   228  -0.011499786038565
                 64.71  -0.046826727009787
                 21.06   -0.12846616875047
                 7.495   -0.30126627246289
                 2.797   -0.25563070233011
                0.5215      1.093793361012
 s    1 1.00
                0.1596                   1
 p    3 1.00
                 9.439   0.056979251590039
                 2.002    0.31320721150073
                0.5456    0.76037674173753
 p    1 1.00
                0.1517                   1
 d    1 1.00
                  0.55                   1

6 0
 s    8 1.00
                  6665  0.00069158396281299
                  1000  0.0053257961529341
                   228   0.027060721042034
                 64.71    0.10165684614077
                 21.06     0.2745748236174
                 7.495    0.44829431892377
                 2.797    0.28490261071525
                0.5215   0.015194859206082
 s    8 1.00
                  6665  -0.00029326965268655
                  1000  -0.0023180354739745
                   228  -0.011499786038565
                 64.71  -0.046826727009787
                 21.06   -0.12846616875047
                 7.495   -0.30126627246289
                 2.797   -0.25563070233011
                0.5215      1.093793361012
 s    1 1.00
                0.1596                   1
 p    3 1.00
                 9.439   0.056979251590039
                 2.002    0.31320721150073
                0.5456    0.76037674173753
 p    1 1.00
                0.1517                   1
 d    1 1.00
                  0.55                   1

7 0
 s    8 1.00
                  6665  0.00069158396281299
                  1000  0.0053257961529341
                   228   0.027060721042034
                 64.71    0.10165684614077
                 21.06     0.2745748236174
                 7.495    0.44829431892377
                 2.797    0.28490261071525
                0.5215   0.015194859206082
 s    8 1.00
                  6665  -0.00029326965268655
                  1000  -0.0023180354739745
                   228  -0.011499786038565
                 64.71  -0.046826727009787
                 21.06   -0.12846616875047
                 7.495   -0.30126627246289
                 2.797   -0.25563070233011
                0.5215      1.093793361012
 s    1 1.00
                0.1596                   1
 p    3 1.00
                 9.439   0.056979251590039
                 2.002    0.31320721150073
                0.5456    0.76037674173753
 p    1 1.00
                0.1517                   1
 d    1 1.00
                  0.55                   1

8 0
 s    8 1.00
                  6665  0.00069158396281299
                  1000  0.0053257961529341
                   228   0.027060721042034
                 64.71    0.10165684614077
                 21.06     0.2745748236174
                 7.495    0.44829431892377
                 2.797    0.28490261071525
                0.5215   0.015194859206082
 s    8 1.00
                  6665  -0.00029326965268655
                  1000  -0.0023180354739745
                   228  -0.011499786038565
                 64.71  -0.046826727009787
                 21.06   -0.12846616875047
                 7.495   -0.30126627246289
                 2.797   -0.25563070233011
                0.5215      1.093793361012
 s    1 1.00
                0.1596                   1
 p    3 1.00
                 9.439   0.056979251590039
                 2.002    0.31320721150073
                0.5456    0.76037674173753
 p    1 1.00
                0.1517                   1
 d    1 1.00
                  0.55                   1

9 0
 s    8 1.00
                  6665  0.00069158396281299
                  1000  0.0053257961529341
                   228   0.027060721042034
                 64.71    0.10165684614077
                 21.06     0.2745748236174
                 7.495    0.44829431892377
                 2.797    0.28490261071525
                0.5215   0.015194859206082
 s    8 1.00
                  6665  -0.00029326965268655
                  1000  -0.0023180354739745
                   228  -0.011499786038565
                 64.71  -0.046826727009787
                 21.06   -0.12846616875047
                 7.495   -0.30126627246289
                 2.797   -0.25563070233011
                0.5215      1.093793361012
 s    1 1.00
                0.1596                   1
 p    3 1.00
                 9.439   0.056979251590039
                 2.002    0.31320721150073
                0.5456    0.76037674173753
 p    1 1.00
                0.1517                   1
 d    1 1.00
                  0.55                   1

10 0
 s    8 1.00
                  6665  0.00069158396281299
                  1000  0.0053257961529341
                   228   0.027060721042034
                 64.71    0.10165684614077
                 21.06     0.2745748236174
                 7.495    0.44829431892377
                 2.797    0.28490261071525
                0.5215   0.015194859206082
 s    8 1.00
                  6665  -0.00029326965268655
                  1000  -0.0023180354739745
                   228  -0.011499786038565
                 64.71  -0.046826727009787
                 21.06   -0.12846616875047
                 7.495   -0.30126627246289
                 2.797   -0.25563070233011
                0.5215      1.093793361012
 s    1 1.00
                0.1596                   1
 p    3 1.00
                 9.439   0.056979251590039
                 2.002    0.31320721150073
                0.5456    0.76037674173753
 p    1 1.00
                0.1517                   1
 d    1 1.00
                  0.55                   1

11 0
 s    8 1.00
                  6665  0.00069158396281299
                  1000  0.0053257961529341
                   228   0.027060721042034
                 64.71    0.10165684614077
                 21.06     0.2745748236174
                 7.495    0.44829431892377
                 2.797    0.28490261071525
                0.5215   0.015194859206082
 s    8 1.00
                  6665  -0.00029326965268655
                  1000  -0.0023180354739745
                   228  -0.011499786038565
                 64.71  -0.046826727009787
                 21.06   -0.12846616875047
                 7.495   -0.30126627246289
                 2.797   -0.25563070233011
                0.5215      1.093793361012
 s    1 1.00
                0.1596                   1
 p    3 1.00
                 9.439   0.056979251590039
                 2.002    0.31320721150073
                0.5456    0.76037674173753
 p    1 1.00
                0.1517                   1
 d    1 1.00
                  0.55                   1

12 0
 s    8 1.00
                  6665  0.00069158396281299
                  1000  0.0053257961529341
                   228   0.027060721042034
                 64.71    0.10165684614077
                 21.06     0.2745748236174
                 7.495    0.44829431892377
                 2.797    0.28490261071525
                0.5215   0.015194859206082
 s    8 1.00
                  6665  -0.00029326965268655
                  1000  -0.0023180354739745
                   228  -0.011499786038565
                 64.71  -0.046826727009787
                 21.06   -0.12846616875047
                 7.495   -0.30126627246289
                 2.797   -0.25563070233011
                0.5215      1.093793361012
 s    1 1.00
                0.1596                   1
 p    3 1.00
                 9.439   0.056979251590039
                 2.002    0.31320721150073
                0.5456    0.76037674173753
 p    1 1.00
                0.1517                   1
 d    1 1.00
                  0.55                   1

13 0
 s    3 1.00
                 13.01   0.033498726389998
                 1.962    0.23480080117413
                0.4446     0.8136829578829
 s    1 1.00
                 0.122                   1
 p    1 1.00
                 0.727                   1

14 0
 s    3 1.00
                 13.01   0.033498726389998
                 1.962    0.23480080117413
                0.4446     0.8136829578829
 s    1 1.00
                 0.122                   1
 p    1 1.00
                 0.727                   1

15 0
 s    3 1.00
                 13.01   0.033498726389998
                 1.962    0.23480080117413
                0.4446     0.8136829578829
 s    1 1.00
                 0.122                   1
 p    1 1.00
                 0.727                   1

16 0
 s    3 1.00
                 13.01   0.033498726389998
                 1.962    0.23480080117413
                0.4446     0.8136829578829
 s    1 1.00
                 0.122                   1
 p    1 1.00
                 0.727                   1

17 0
 s    3 1.00
                 13.01   0.033498726389998
                 1.962    0.23480080117413
                0.4446     0.8136829578829
 s    1 1.00
                 0.122                   1
 p    1 1.00
                 0.727                   1

18 0
 s    3 1.00
                 13.01   0.033498726389998
                 1.962    0.23480080117413
                0.4446     0.8136829578829
 s    1 1.00
                 0.122                   1
 p    1 1.00
                 0.727                   1

19 0
 s    3 1.00
                 13.01   0.033498726389998
                 1.962    0.23480080117413
                0.4446     0.8136829578829
 s    1 1.00
                 0.122                   1
 p    1 1.00
                 0.727                   1

20 0
 s    3 1.00
                 13.01   0.033498726389998
                 1.962    0.23480080117413
                0.4446     0.8136829578829
 s    1 1.00
                 0.122                   1
 p    1 1.00
                 0.727                   1

21 0
 s    3 1.00
                 13.01   0.033498726389998
                 1.962    0.23480080117413
                0.4446     0.8136829578829
 s    1 1.00
                 0.122                   1
 p    1 1.00
                 0.727                   1

22 0
 s    3 1.00
                 13.01   0.033498726389998
                 1.962    0.23480080117413
                0.4446     0.8136829578829
 s    1 1.00
                 0.122                   1
 p    1 1.00
                 0.727                   1

[5d]
[7f]
[9g]

[MO]
 Sym= A
 Ene=               0
 Spin= Alpha
 Occup=    1.00000
   1    -2.0117501134172e-17
   2    1.2249267606441e-16
   3    1.0022104450014e-15
   4    5.768275461817e-16
   5    4.9799302640306e-16
   6      0.22017463703125
   7    -2.3478755326892e-16
   8    8.3261776583426e-16
   9      0.13303695165964
  10    -1.288854297756e-16
  11     0.012405194610475
  12     0.009771724513982
  13    5.1512732630516e-16
  14    1.8705391918222e-16
  15    -7.7751318772766e-17
  16    -3.5775241748013e-16
  17    -2.7628271257057e-16
  18    1.8284951322986e-16
  19    5.0030154034838e-16
  20      0.22233718273861
  21    -1.735050072612e-15
  22    5.7129171664965e-16
  23      0.13331555094619
  24    -2.9730702947221e-16
  25     0.015033628552563
  26    -0.0064223424681359
  27    -1.2940615225252e-16
  28    -9.4853759369865e-17
  29    -2.8335975531626e-17
  30    1.2726064952076e-16
  31    -7.5437116030765e-17
  32    4.4247227296378e-16
  33    3.1827112503082e-16
  34      0.21195502663953
  35    6.6901907900515e-16
  36    -3.2745178500716e-16
  37      0.12649981046997
  38    -1.0929302763219e-16
  39    -0.0026271862895501
  40     0.014975797814777
  41    -7.7798316666493e-17
  42    1.3793577126847e-16
  43    -2.2413253737227e-16
  44    -1.264010266239e-16
  45    2.4671840891933e-15
  46    -2.3533674626972e-16
  47    1.5946375589913e-16
  48      0.22018015174089
  49    1.2507222942251e-15
  50    -8.4354778462224e-16
  51      0.13305749758131
  52    3.0325501423293e-18
  53    0.0015251711122247
  54    -0.015726321158499
  55    -3.42999413174e-16
  56    -1.0327926856038e-16
  57    3.9760415998346e-16
  58    3.7800538062089e-16
  59    -6.3129779739055e-15
  60    -1.9202463923306e-16
  61    3.4233847382387e-16
  62      0.20540169474654
  63    -1.9986915739471e-15
  64    3.8952851154519e-16
  65      0.12079206791018
  66    -5.7988555263693e-17
  67    -0.013065508400309
  68    0.0055604182665455
  69    -2.3999103459292e-16
  70    -1.2993552066759e-16
  71    8.9684782074492e-20
  72    -9.5277287790793e-18
  73    -6.5714060441637e-16
  74    1.2086588768703e-16
  75    -2.1512129813863e-17
  76      0.21199220813388
  77    1.1076585135445e-15
  78    -1.27199670299e-15
  79      0.12645728518568
  80    1.2733086353826e-16
  81    -0.012640406035818
  82    -0.0084588490018012
  83    7.0360470236554e-17
  84    1.7929089983144e-16
  85    -5.1017190812565e-16
  86    -3.7310576598476e-16
  87    3.6808839548437e-15
  88    -8.3235468401254e-17
  89    1.6618214658589e-16
  90      0.01335546265447
  91    -3.0347772019891e-15
  92    3.4337545861865e-15
  93    -0.008184330711361
  94    -3.2404148241414e-17
  95    -0.010324376501762
  96     0.004402130875453
  97    1.6338921720245e-17
  98    -1.2053155910554e-16
  99    -1.6859437293983e-16
 100    -3.6574113303051e-16
 101    8.9624637911354e-16
 102    -5.7205696507332e-17
 103    -7.2987924340089e-17
 104    -0.020793477513061
 105    -5.2746249231243e-16
 106    1.4414063189061e-15
 107    -0.017444390086767
 108    -1.6218427722625e-16
 109    -0.0015042781318745
 110    0.0010572158228323
 111    -1.7418752849357e-16
 112    -2.6920302697118e-16
 113    -1.0866468893575e-16
 114    1.956132558912e-16
 115    6.1498645201168e-16
 116    2.9890104103608e-16
 117    6.1056580570269e-18
 118     -0.01774077309862
 119    -1.6834395787614e-15
 120    1.066833440501e-15
 121    -0.011436993056419
 122    -3.0231000164372e-19
 123    0.0009929932044714
 124    -0.0014540798837252
 125    -1.1511911078365e-16
 126    2.6563631424878e-16
 127    5.5832433837774e-17
 128    1.516939880783e-17
 129    -5.2596016921554e-16
 130    4.0648470655576e-17
 131    -6.5978687142579e-18
 132    -0.011825052880972
 133    1.4222207988584e-16
 134    -4.7430369391706e-16
 135    -0.002521915474626
 136    1.5012145402573e-16
 137    0.0012805669961675
 138    -0.00056946179367192
 139    -3.1220459402863e-16
 140    -4.2352479339004e-18
 141    -2.9192119075367e-17
 142    6.1906192961421e-17
 143    -1.9495303273179e-15
 144    -1.5705756142362e-16
 145    -7.4176475874518e-17
 146    -0.018141993015505
 147    5.8545089481963e-16
 148    -8.4336024160952e-16
 149     -0.01197802564685
 150    1.7910862739967e-16
 151    0.0017700243912062
 152    0.00033121190878742
 153    -8.8927852612671e-17
 154    1.8892096558738e-16
 155    1.5006685021696e-16
 156    2.6040823005585e-16
 157    -1.9328372213097e-16
 158    -4.0257445930174e-16
 159    -1.1909131400807e-16
 160    -0.021482604247098
 161    3.2874691422901e-15
 162    -9.8045366249284e-16
 163    -0.018204608539857
 164    -4.9790969654273e-17
 165    -0.0018391155486715
 166    0.00033010121673443
 167    9.1782326999417e-17
 168    -1.7693373233139e-16
 169    -6.1439611987731e-17
 170    -1.6817812431273e-15
 171    1.4398270548309e-16
 172    5.5734211302415e-17
 173    0.0076216179258574
 174    -3.2720875352362e-16
 175    6.8683565744785e-16
 176    1.6321734226594e-17
 177    -1.7430739552244e-16
 178    0.0072804804133319
 179    -6.0238935046283e-18
 180    5.6211881776635e-17
 181    1.2609573401253e-16
 182    7.6765345447296e-17
 183    0.0074368515656183
 184    1.0911630698977e-16
 185    -1.4662165605514e-16
 186    1.6616382557235e-16
 187    2.2806953133736e-16
 188    0.0072832507467441
 189    -1.1990362316696e-16
 190    -2.592189957923e-16
 191    1.4957873513482e-17
 192    1.8153526033974e-16
 193    -0.00041679535841279
 194    -7.0045100054223e-17
 195    1.0254910457443e-15
 196    1.7518988014357e-16
 197    5.5297529773741e-17
 198    -0.00058463703990538
 199    4.0275274278451e-16
 200    -4.607105201891e-17
 201    -1.2239018041126e-16
 202    3.109426494206e-17
 203    -0.00033381172359802
 204    2.7906970057863e-16
 205    7.9312089752568e-16
 206    -1.2605234031096e-16
 207    -5.4838986650425e-17
 208    -0.00042965736282432
 209    -2.5471774989598e-16
 210    9.3678359529475e-16
 211    -3.9364299579684e-17
 212    -2.2434547379751e-16
 213    0.0074359391500997
 214    5.2758587864657e-17
 215    2.1378032602402e-16
 216    -1.0553340385805e-16
 217    -1.3039418666664e-16
 218    -0.00068367309755083
 Sym= A
 Ene=               1
 Spin= Alpha
 Occup=    1.00000
   1    2.4500784658212e-16
   2    2.2747424256107e-16
   3    -3.8838653205006e-15
   4    3.4346008387635e-16
   5    3.6949571852872e-16
   6      0.15182108574548
   7    1.7215428543697e-15
   8    -3.4784556918686e-15
   9      0.12171145141651
  10    2.7159902993033e-17
  11    -0.011252032419026
  12      0.02466736297955
  13    2.4157985631666e-16
  14    3.1704796154335e-16
  15    -5.6230372517845e-16
  16    -8.8687649386411e-16
  17    7.0118630905837e-15
  18    -2.1682135776138e-16
  19    3.1987675767939e-16
  20      0.31618682561048
  21    7.1360107912957e-16
  22    -3.8110040338937e-15
  23      0.25846367271427
  24    3.3026020471004e-17
  25     0.011600285701438
  26    -0.0048332096124277
  27    -1.696496673138e-16
  28    -1.2480901838335e-16
  29    5.0368680507125e-16
  30    8.0664122208048e-16
  31    -2.4780780042785e-15
  32    -5.529958247617e-17
  33    2.6635743340482e-16
  34     -0.16672487908807
  35    1.2958728421013e-15
  36    -7.5627188827667e-16
  37     -0.13596403003914
  38    -1.3827771905136e-16
  39    -0.025164947851532
  40    -0.0096620839235714
  41    -2.9651488920464e-16
  42    2.1675071811248e-16
  43    3.9249945891855e-16
  44    9.0676328545129e-16
  45    -4.4677641672436e-15
  46    -1.0968115774225e-16
  47    -8.4789714592995e-17
  48      0.15393594575082
  49    -1.189207677595e-15
  50    1.7336943462542e-15
  51      0.12336090606572
  52    -1.5168260775992e-16
  53    -0.025468506339613
  54    -0.0090017585250088
  55    -1.5966851306233e-17
  56    3.3426561295123e-17
  57    -3.787792666706e-17
  58    -3.9076881192711e-17
  59    2.0853355851331e-15
  60    -2.7378291732088e-16
  61    1.9250347201318e-16
  62     -0.32873291668703
  63    1.4644903330181e-15
  64    1.5204403823321e-15
  65     -0.25430931075601
  66    1.2914409787961e-16
  67     0.010154468387945
  68    -0.0041728423920057
  69    -1.6521149320803e-16
  70    1.7488564637402e-16
  71    -1.2900156631502e-16
  72    -4.3658332481921e-16
  73    1.7686243715214e-16
  74    3.1721883811328e-16
  75    -4.0230342298758e-16
  76     -0.16457291250703
  77    -3.4186698031297e-15
  78    1.2658874121333e-15
  79     -0.13413932554324
  80    -3.9166908782238e-17
  81    -0.010548538076609
  82     0.024911301901233
  83    1.7251172428714e-16
  84    1.1984332212584e-16
  85    -2.98156035421e-16
  86    -5.5807402888456e-16
  87    8.5130112989735e-16
  88    6.9016795625284e-17
  89    -1.7366353729375e-17
  90     -0.02411038184009
  91    -2.6636777057941e-16
  92    -2.8167871863843e-15
  93    0.0073010287723218
  94    1.2159078944798e-16
  95     0.018880362538112
  96    -0.0080702576579944
  97    2.2662943659084e-16
  98    7.6118672566307e-17
  99    3.6537610304238e-16
 100    3.8199923849771e-16
 101    -2.2057052794775e-15
 102    1.8240394735617e-16
 103    8.3780933817761e-17
 104      0.03966718491855
 105    1.4008126192945e-15
 106    -1.169383651117e-15
 107     0.042181541313656
 108    4.4533385058004e-17
 109    0.0022190145234907
 110    -0.0014157241829054
 111    5.2327933947467e-17
 112    -2.6824770440408e-17
 113    1.5172383289453e-16
 114    1.0209163675127e-16
 115    2.0231515828938e-16
 116    -6.912231627973e-17
 117    -1.1140156481244e-16
 118     0.010125415396503
 119    1.2588604426121e-15
 120    3.3624535725654e-16
 121    0.0088607193876799
 122    1.8637863294308e-16
 123    -0.0042573831536056
 124    0.0011935775715859
 125    -2.8898363689857e-17
 126    1.8533251178002e-16
 127    8.2971879057063e-17
 128    1.3423204552125e-16
 129    -2.8191025701906e-15
 130    5.6788831428133e-17
 131    -9.9572953795659e-17
 132    -0.016831667561152
 133    6.5630380783778e-16
 134    -4.4408387662263e-16
 135    -0.030959132084203
 136    5.6656668659308e-17
 137    -0.00093673039391474
 138    0.00048239604401439
 139    -2.9135650406407e-17
 140    -2.1246125739911e-16
 141    -3.0651397411743e-16
 142    -3.2531791343039e-16
 143    4.8052162415344e-15
 144    2.6892869728883e-17
 145    -1.0253144057372e-16
 146     0.010762837190448
 147    -2.099525683263e-15
 148    -6.4325098452953e-16
 149      0.00937208259209
 150    -7.8541513549341e-17
 151    -0.0037532349043204
 152    0.0021497477184831
 153    1.7329390511723e-16
 154    2.9814282098189e-17
 155    -1.4315417558464e-16
 156    8.3950199202357e-17
 157    -1.4256201452491e-15
 158    1.6754671925523e-16
 159    -3.3737844212451e-16
 160     0.040563787866328
 161    -3.0403806458039e-15
 162    1.9813265127866e-15
 163     0.043349059442745
 164    8.2707711174377e-17
 165    0.0026032606007029
 166    -0.00059631821992739
 167    -6.041797761827e-17
 168    3.1661115209973e-16
 169    1.6650971952204e-16
 170    -6.1656953686213e-16
 171    7.5819824612526e-17
 172    2.7693076862921e-17
 173     0.011819060279026
 174    -3.3794162294452e-16
 175    4.5676281819217e-16
 176    3.4377802348895e-17
 177    -2.0941005864432e-16
 178    -0.0062078478979395
 179    3.0961128542062e-17
 180    -1.1638691636579e-17
 181    -7.0620376073141e-17
 182    -8.7922971895037e-17
 183    0.0057911666386235
 184    6.6959183748607e-17
 185    1.6142847356772e-15
 186    7.1148921349687e-18
 187    -1.0511020901227e-16
 188    -0.0061325537414518
 189    3.8498957222542e-16
 190    4.3996214659786e-16
 191     1.46848293316e-16
 192    -2.0115950471786e-16
 193    0.0010683987091254
 194    -1.9078723416611e-16
 195    -1.56265776995e-16
 196    -1.3806181763623e-16
 197    -1.4315844004246e-16
 198    0.00020963175293426
 199    -5.905046824227e-17
 200    1.5105716689973e-16
 201    5.6660886874376e-17
 202    7.0506527310069e-17
 203    -0.0009117030372343
 204    -2.4739352372442e-17
 205    -8.4561024535858e-16
 206    -4.8125677654937e-17
 207    -2.3409326669438e-16
 208    0.0010329781678627
 209    5.2034154514175e-17
 210    8.9923389512709e-16
 211    -4.2417878009883e-17
 212    -9.6950351493846e-17
 213    0.0057095146151289
 214    -7.0439678786646e-17
 215    7.0491380950366e-16
 216    1.5064304629938e-16
 217    -6.8806506265993e-17
 218    0.00030912069297702
 Sym= A
 Ene=               2
 Spin= Alpha
 Occup=    1.00000
   1    1.2604262707978e-17
   2    1.9258876146712e-16
   3    1.3719061884354e-15
   4    -5.8231224438973e-17
   5    -3.4640642303428e-17
   6     -0.27746379843583
   7    3.8755761861785e-16
   8    3.1415781681971e-15
   9     -0.22270279460265
  10    1.9600816427596e-17
  11    -0.017935875332196
  12    0.0057140588188504
  13    -5.7772042196169e-16
  14    1.8297112873687e-16
  15    -5.1854111585966e-16
  16    -1.0328135518371e-15
  17    -7.0353098161891e-16
  18    -3.7074538103079e-16
  19    1.2643399660824e-16
  20    -0.0012481988904717
  21    3.6870353154208e-16
  22    1.6238625308186e-15
  23    -0.0010271146774756
  24    2.0845486403929e-17
  25     0.011644253568405
  26     0.027389723320685
  27    3.942760422374e-16
  28    -3.8611168253434e-16
  29    3.9621631632072e-16
  30    6.6890059323206e-16