[Molden Format]
made by pyscf v[2.0.1]
[Atoms] (AU)
C   1   6   -12.96446266473323    -0.82707338726680     0.00000000000000
C   2   6   -13.30706186601933     1.79016470768469     0.00000000000000
C   3   6   -10.53821237370529    -1.85986082750791     0.00000000000000
C   4   6   -11.17974231281547     3.35290792495641     0.00000000000000
C   5   6    -8.36309906903577    -0.32142676666723     0.00000000000000
C   6   6    -8.75639895309194     2.31345854363535     0.00000000000000
C   7   6    -5.76644016962649    -1.44258163436937     0.00000000000000
C   8   6    -5.38961479565901    -4.07621596506373     0.00000000000000
C   9   6    -2.95570955650329    -5.08096852097147     0.00000000000000
C   10   6    -0.84112333678574    -3.51193184541908     0.00000000000000
C   11   6    -1.12013366216107    -0.86586903847088     0.00000000000000
C   12   6    -3.59823506116150     0.09549522854951     0.00000000000000
H   13   1   -15.20541388925464     2.59964695004217     0.00000000000000
H   14   1   -10.35981099482530    -3.91099447423649     0.00000000000000
H   15   1   -11.39993034415081     5.40555505541686     0.00000000000000
H   16   1    -7.15259053846937     3.60490683939976     0.00000000000000
H   17   1    -6.98895030904707    -5.37162179878855     0.00000000000000
H   18   1    -2.70195054245478    -7.12936097577027     0.00000000000000
H   19   1     1.02540315437362    -4.37814711554208     0.00000000000000
H   20   1    -3.84909629339259     2.13178234629333     0.00000000000000
H   21   1   -14.60015047089398    -2.08671407141706     0.00000000000000
H   22   1     0.42896783027627     0.31885348899786     0.00000000000000
[GTO]
1 0
 s    8 1.00
                  6665  0.00069158396281299
                  1000  0.0053257961529341
                   228   0.027060721042034
                 64.71    0.10165684614077
                 21.06     0.2745748236174
                 7.495    0.44829431892377
                 2.797    0.28490261071525
                0.5215   0.015194859206082
 s    8 1.00
                  6665  -0.00029326965268655
                  1000  -0.0023180354739745
                   228  -0.011499786038565
                 64.71  -0.046826727009787
                 21.06   -0.12846616875047
                 7.495   -0.30126627246289
                 2.797   -0.25563070233011
                0.5215      1.093793361012
 s    1 1.00
                0.1596                   1
 p    3 1.00
                 9.439   0.056979251590039
                 2.002    0.31320721150073
                0.5456    0.76037674173753
 p    1 1.00
                0.1517                   1
 d    1 1.00
                  0.55                   1

2 0
 s    8 1.00
                  6665  0.00069158396281299
                  1000  0.0053257961529341
                   228   0.027060721042034
                 64.71    0.10165684614077
                 21.06     0.2745748236174
                 7.495    0.44829431892377
                 2.797    0.28490261071525
                0.5215   0.015194859206082
 s    8 1.00
                  6665  -0.00029326965268655
                  1000  -0.0023180354739745
                   228  -0.011499786038565
                 64.71  -0.046826727009787
                 21.06   -0.12846616875047
                 7.495   -0.30126627246289
                 2.797   -0.25563070233011
                0.5215      1.093793361012
 s    1 1.00
                0.1596                   1
 p    3 1.00
                 9.439   0.056979251590039
                 2.002    0.31320721150073
                0.5456    0.76037674173753
 p    1 1.00
                0.1517                   1
 d    1 1.00
                  0.55                   1

3 0
 s    8 1.00
                  6665  0.00069158396281299
                  1000  0.0053257961529341
                   228   0.027060721042034
                 64.71    0.10165684614077
                 21.06     0.2745748236174
                 7.495    0.44829431892377
                 2.797    0.28490261071525
                0.5215   0.015194859206082
 s    8 1.00
                  6665  -0.00029326965268655
                  1000  -0.0023180354739745
                   228  -0.011499786038565
                 64.71  -0.046826727009787
                 21.06   -0.12846616875047
                 7.495   -0.30126627246289
                 2.797   -0.25563070233011
                0.5215      1.093793361012
 s    1 1.00
                0.1596                   1
 p    3 1.00
                 9.439   0.056979251590039
                 2.002    0.31320721150073
                0.5456    0.76037674173753
 p    1 1.00
                0.1517                   1
 d    1 1.00
                  0.55                   1

4 0
 s    8 1.00
                  6665  0.00069158396281299
                  1000  0.0053257961529341
                   228   0.027060721042034
                 64.71    0.10165684614077
                 21.06     0.2745748236174
                 7.495    0.44829431892377
                 2.797    0.28490261071525
                0.5215   0.015194859206082
 s    8 1.00
                  6665  -0.00029326965268655
                  1000  -0.0023180354739745
                   228  -0.011499786038565
                 64.71  -0.046826727009787
                 21.06   -0.12846616875047
                 7.495   -0.30126627246289
                 2.797   -0.25563070233011
                0.5215      1.093793361012
 s    1 1.00
                0.1596                   1
 p    3 1.00
                 9.439   0.056979251590039
                 2.002    0.31320721150073
                0.5456    0.76037674173753
 p    1 1.00
                0.1517                   1
 d    1 1.00
                  0.55                   1

5 0
 s    8 1.00
                  6665  0.00069158396281299
                  1000  0.0053257961529341
                   228   0.027060721042034
                 64.71    0.10165684614077
                 21.06     0.2745748236174
                 7.495    0.44829431892377
                 2.797    0.28490261071525
                0.5215   0.015194859206082
 s    8 1.00
                  6665  -0.00029326965268655
                  1000  -0.0023180354739745
                   228  -0.011499786038565
                 64.71  -0.046826727009787
                 21.06   -0.12846616875047
                 7.495   -0.30126627246289
                 2.797   -0.25563070233011
                0.5215      1.093793361012
 s    1 1.00
                0.1596                   1
 p    3 1.00
                 9.439   0.056979251590039
                 2.002    0.31320721150073
                0.5456    0.76037674173753
 p    1 1.00
                0.1517                   1
 d    1 1.00
                  0.55                   1

6 0
 s    8 1.00
                  6665  0.00069158396281299
                  1000  0.0053257961529341
                   228   0.027060721042034
                 64.71    0.10165684614077
                 21.06     0.2745748236174
                 7.495    0.44829431892377
                 2.797    0.28490261071525
                0.5215   0.015194859206082
 s    8 1.00
                  6665  -0.00029326965268655
                  1000  -0.0023180354739745
                   228  -0.011499786038565
                 64.71  -0.046826727009787
                 21.06   -0.12846616875047
                 7.495   -0.30126627246289
                 2.797   -0.25563070233011
                0.5215      1.093793361012
 s    1 1.00
                0.1596                   1
 p    3 1.00
                 9.439   0.056979251590039
                 2.002    0.31320721150073
                0.5456    0.76037674173753
 p    1 1.00
                0.1517                   1
 d    1 1.00
                  0.55                   1

7 0
 s    8 1.00
                  6665  0.00069158396281299
                  1000  0.0053257961529341
                   228   0.027060721042034
                 64.71    0.10165684614077
                 21.06     0.2745748236174
                 7.495    0.44829431892377
                 2.797    0.28490261071525
                0.5215   0.015194859206082
 s    8 1.00
                  6665  -0.00029326965268655
                  1000  -0.0023180354739745
                   228  -0.011499786038565
                 64.71  -0.046826727009787
                 21.06   -0.12846616875047
                 7.495   -0.30126627246289
                 2.797   -0.25563070233011
                0.5215      1.093793361012
 s    1 1.00
                0.1596                   1
 p    3 1.00
                 9.439   0.056979251590039
                 2.002    0.31320721150073
                0.5456    0.76037674173753
 p    1 1.00
                0.1517                   1
 d    1 1.00
                  0.55                   1

8 0
 s    8 1.00
                  6665  0.00069158396281299
                  1000  0.0053257961529341
                   228   0.027060721042034
                 64.71    0.10165684614077
                 21.06     0.2745748236174
                 7.495    0.44829431892377
                 2.797    0.28490261071525
                0.5215   0.015194859206082
 s    8 1.00
                  6665  -0.00029326965268655
                  1000  -0.0023180354739745
                   228  -0.011499786038565
                 64.71  -0.046826727009787
                 21.06   -0.12846616875047
                 7.495   -0.30126627246289
                 2.797   -0.25563070233011
                0.5215      1.093793361012
 s    1 1.00
                0.1596                   1
 p    3 1.00
                 9.439   0.056979251590039
                 2.002    0.31320721150073
                0.5456    0.76037674173753
 p    1 1.00
                0.1517                   1
 d    1 1.00
                  0.55                   1

9 0
 s    8 1.00
                  6665  0.00069158396281299
                  1000  0.0053257961529341
                   228   0.027060721042034
                 64.71    0.10165684614077
                 21.06     0.2745748236174
                 7.495    0.44829431892377
                 2.797    0.28490261071525
                0.5215   0.015194859206082
 s    8 1.00
                  6665  -0.00029326965268655
                  1000  -0.0023180354739745
                   228  -0.011499786038565
                 64.71  -0.046826727009787
                 21.06   -0.12846616875047
                 7.495   -0.30126627246289
                 2.797   -0.25563070233011
                0.5215      1.093793361012
 s    1 1.00
                0.1596                   1
 p    3 1.00
                 9.439   0.056979251590039
                 2.002    0.31320721150073
                0.5456    0.76037674173753
 p    1 1.00
                0.1517                   1
 d    1 1.00
                  0.55                   1

10 0
 s    8 1.00
                  6665  0.00069158396281299
                  1000  0.0053257961529341
                   228   0.027060721042034
                 64.71    0.10165684614077
                 21.06     0.2745748236174
                 7.495    0.44829431892377
                 2.797    0.28490261071525
                0.5215   0.015194859206082
 s    8 1.00
                  6665  -0.00029326965268655
                  1000  -0.0023180354739745
                   228  -0.011499786038565
                 64.71  -0.046826727009787
                 21.06   -0.12846616875047
                 7.495   -0.30126627246289
                 2.797   -0.25563070233011
                0.5215      1.093793361012
 s    1 1.00
                0.1596                   1
 p    3 1.00
                 9.439   0.056979251590039
                 2.002    0.31320721150073
                0.5456    0.76037674173753
 p    1 1.00
                0.1517                   1
 d    1 1.00
                  0.55                   1

11 0
 s    8 1.00
                  6665  0.00069158396281299
                  1000  0.0053257961529341
                   228   0.027060721042034
                 64.71    0.10165684614077
                 21.06     0.2745748236174
                 7.495    0.44829431892377
                 2.797    0.28490261071525
                0.5215   0.015194859206082
 s    8 1.00
                  6665  -0.00029326965268655
                  1000  -0.0023180354739745
                   228  -0.011499786038565
                 64.71  -0.046826727009787
                 21.06   -0.12846616875047
                 7.495   -0.30126627246289
                 2.797   -0.25563070233011
                0.5215      1.093793361012
 s    1 1.00
                0.1596                   1
 p    3 1.00
                 9.439   0.056979251590039
                 2.002    0.31320721150073
                0.5456    0.76037674173753
 p    1 1.00
                0.1517                   1
 d    1 1.00
                  0.55                   1

12 0
 s    8 1.00
                  6665  0.00069158396281299
                  1000  0.0053257961529341
                   228   0.027060721042034
                 64.71    0.10165684614077
                 21.06     0.2745748236174
                 7.495    0.44829431892377
                 2.797    0.28490261071525
                0.5215   0.015194859206082
 s    8 1.00
                  6665  -0.00029326965268655
                  1000  -0.0023180354739745
                   228  -0.011499786038565
                 64.71  -0.046826727009787
                 21.06   -0.12846616875047
                 7.495   -0.30126627246289
                 2.797   -0.25563070233011
                0.5215      1.093793361012
 s    1 1.00
                0.1596                   1
 p    3 1.00
                 9.439   0.056979251590039
                 2.002    0.31320721150073
                0.5456    0.76037674173753
 p    1 1.00
                0.1517                   1
 d    1 1.00
                  0.55                   1

13 0
 s    3 1.00
                 13.01   0.033498726389998
                 1.962    0.23480080117413
                0.4446     0.8136829578829
 s    1 1.00
                 0.122                   1
 p    1 1.00
                 0.727                   1

14 0
 s    3 1.00
                 13.01   0.033498726389998
                 1.962    0.23480080117413
                0.4446     0.8136829578829
 s    1 1.00
                 0.122                   1
 p    1 1.00
                 0.727                   1

15 0
 s    3 1.00
                 13.01   0.033498726389998
                 1.962    0.23480080117413
                0.4446     0.8136829578829
 s    1 1.00
                 0.122                   1
 p    1 1.00
                 0.727                   1

16 0
 s    3 1.00
                 13.01   0.033498726389998
                 1.962    0.23480080117413
                0.4446     0.8136829578829
 s    1 1.00
                 0.122                   1
 p    1 1.00
                 0.727                   1

17 0
 s    3 1.00
                 13.01   0.033498726389998
                 1.962    0.23480080117413
                0.4446     0.8136829578829
 s    1 1.00
                 0.122                   1
 p    1 1.00
                 0.727                   1

18 0
 s    3 1.00
                 13.01   0.033498726389998
                 1.962    0.23480080117413
                0.4446     0.8136829578829
 s    1 1.00
                 0.122                   1
 p    1 1.00
                 0.727                   1

19 0
 s    3 1.00
                 13.01   0.033498726389998
                 1.962    0.23480080117413
                0.4446     0.8136829578829
 s    1 1.00
                 0.122                   1
 p    1 1.00
                 0.727                   1

20 0
 s    3 1.00
                 13.01   0.033498726389998
                 1.962    0.23480080117413
                0.4446     0.8136829578829
 s    1 1.00
                 0.122                   1
 p    1 1.00
                 0.727                   1

21 0
 s    3 1.00
                 13.01   0.033498726389998
                 1.962    0.23480080117413
                0.4446     0.8136829578829
 s    1 1.00
                 0.122                   1
 p    1 1.00
                 0.727                   1

22 0
 s    3 1.00
                 13.01   0.033498726389998
                 1.962    0.23480080117413
                0.4446     0.8136829578829
 s    1 1.00
                 0.122                   1
 p    1 1.00
                 0.727                   1

[5d]
[7f]
[9g]

[MO]
 Sym= A
 Ene=               0
 Spin= Alpha
 Occup=    1.00000
   1    6.4412075381535e-17
   2    1.1002662689231e-16
   3    1.1813555390668e-15
   4    5.6170816986403e-16
   5    4.8422458160164e-16
   6      0.21507778073146
   7    -3.244104484425e-16
   8    9.2201063308024e-16
   9      0.12895831888274
  10    -1.3750105140798e-16
  11     0.012863774118964
  12    0.0088654379111682
  13    4.9488758586292e-16
  14    1.7855397937636e-16
  15    2.4387735675257e-17
  16    -3.2193413911158e-16
  17    -5.4085868465748e-16
  18    1.9340042464053e-16
  19    4.9225842070906e-16
  20      0.21098541154428
  21    -1.7620829521509e-15
  22    7.2007979867529e-16
  23       0.1236689121605
  24    -3.0214618030135e-16
  25     0.014646421739484
  26    -0.0062566132051592
  27    -1.0784339069318e-16
  28    -9.5824300497319e-17
  29    -2.482545407987e-17
  30    8.5172538621279e-17
  31    1.7427555133098e-16
  32    4.4680274157537e-16
  33    3.0751805612595e-16
  34      0.21847498042634
  35    7.6291281033346e-16
  36    -1.8047352499033e-16
  37      0.13202510005485
  38    -1.1159462978525e-16
  39    -0.0017654811870076
  40     0.015354605365688
  41    -6.5664837897412e-17
  42    1.4441658538381e-16
  43    -6.5001111758365e-17
  44    -1.4792175157233e-16
  45    2.5688947524275e-15
  46    -2.2476990632192e-16
  47    1.6149704756192e-16
  48      0.21509008325143
  49    1.2463137530279e-15
  50    -9.3420124055321e-16
  51      0.12897024779992
  52    2.1556857375336e-17
  53    0.0024970498594148
  54    -0.015430858829284
  55    -3.4819733839668e-16
  56    -1.0337245282477e-16
  57    3.6124364140696e-16
  58    3.892092106371e-16
  59    -6.4797039789616e-15
  60    -1.6871604021703e-16
  61    3.436737688496e-16
  62      0.21693875677747
  63    -1.9743786053343e-15
  64    5.2586002578482e-16
  65      0.12965638032812
  66    -5.5047532478298e-17
  67    -0.013546376802841
  68    0.0057667820724174
  69    -2.4407818826764e-16
  70    -1.3544178008299e-16
  71    7.3086115206653e-17
  72    1.6021426308835e-17
  73    -7.1864847643013e-16
  74    1.0127987239555e-16
  75    -6.4001112051047e-18
  76      0.21851848180522
  77    1.2279014090129e-15
  78    -1.1773462598683e-15
  79      0.13200557965102
  80    1.3106081340568e-16
  81    -0.012316113688465
  82    -0.0093451889145357
  83    6.2830910221428e-17
  84    1.7611314478136e-16
  85    -3.549995560962e-16
  86    -3.6104629700715e-16
  87    3.6426774510151e-15
  88    -8.4880534277422e-17
  89    1.6155783254515e-16
  90       0.0150153739153
  91    -3.047450997649e-15
  92    3.4530435179122e-15
  93    -0.010730488326025
  94    -4.0081198894025e-17
  95    -0.010627213832746
  96    0.0045703738519345
  97    1.4323668814787e-17
  98    -1.378118015915e-16
  99    -1.2032430794848e-16
 100    -4.1406891999934e-16
 101    9.0262518950342e-16
 102    -5.471278620655e-17
 103    -7.9342510038788e-17
 104    -0.017309664523869
 105    -6.6792631812366e-16
 106    1.467289023794e-15
 107    -0.017006438140098
 108    -1.642755807578e-16
 109    -0.00054079881333954
 110    0.00071925087244752
 111    -1.8448152159393e-16
 112    -2.5865692545706e-16
 113    -5.1381725700346e-17
 114    2.0252992071359e-16
 115    7.6305209705899e-16
 116    2.936897038756e-16
 117     2.54747969458e-18
 118    -0.0013633491866749
 119    -1.7449984380514e-15
 120    1.1161000684956e-15
 121    -0.00047606287243049
 122    -1.1871532718492e-17
 123    0.0019641866145882
 124    -0.00035218342655408
 125    -1.2409473218257e-16
 126    2.5604379232677e-16
 127    1.4972852118064e-16
 128    -5.811771018502e-18
 129    -2.935840234801e-16
 130    5.7309294753432e-17
 131    2.0332405864462e-18
 132     0.012442852338581
 133    1.9983617270994e-16
 134    -3.5122305064983e-16
 135     0.014756770463796
 136    1.5343816140813e-16
 137    0.00014401014078453
 138    -7.5032920292494e-05
 139    -3.1461984829384e-16
 140    4.5250421869818e-18
 141    5.4050137673163e-17
 142    8.3947010267613e-17
 143    -2.1555826902406e-15
 144    -1.4771971794199e-16
 145    -7.6358908293903e-17
 146    -0.0013501819646261
 147    5.1516006210219e-16
 148    -6.5185662226422e-16
 149    -0.00046419357322484
 150    1.898695871392e-16
 151    0.0015597536413848
 152    -0.0011170210421811
 153    -8.9749175927214e-17
 154    1.9537137391536e-16
 155    2.739642210063e-16
 156    2.5800994251212e-16
 157    -2.5019205846044e-16
 158    -4.0407378184435e-16
 159    -1.0814832643879e-16
 160    -0.017352613122066
 161    3.266595393306e-15
 162    -1.083574487577e-15
 163    -0.017202724220048
 164    -4.190260955613e-17
 165    -0.00089647205054811
 166    -0.00011547852903117
 167    8.9075305877255e-17
 168    -1.9442441560296e-16
 169    -8.1516922640306e-17
 170    -1.6629038693998e-15
 171    1.3813705325275e-16
 172    5.3182531062142e-17
 173    0.0071911292206724
 174    -3.3901101058381e-16
 175    7.6717397889615e-16
 176    2.7137913627781e-18
 177    -1.5776190835605e-16
 178    0.0075276828097237
 179    5.9624026185309e-19
 180    7.466670792062e-17
 181    1.4809168715074e-16
 182    7.9524767068132e-17
 183    0.0072393121649195
 184    1.0275333904401e-16
 185    -2.8326470599547e-16
 186    1.7718642060801e-16
 187    2.4690066896679e-16
 188    0.0075326475406838
 189    -1.2327909150093e-16
 190    -3.4987157677857e-16
 191     1.75206461288e-17
 192    1.9189808934908e-16
 193    -0.00028322755518561
 194    -8.4208138701071e-17
 195    1.0612307684112e-15
 196    1.8809722791333e-16
 197    5.6086944948376e-17
 198    3.6750781807216e-07
 199    3.7477375640762e-16
 200    -4.9578176854965e-17
 201    -1.3038974971877e-16
 202    1.8798531645249e-17
 203    0.00051731601216009
 204    3.0170122857006e-16
 205    8.3971192798199e-16
 206    -1.3304281189581e-16
 207    -5.1678831759881e-17
 208    -0.00026957758826586
 209    -2.7300380609446e-16
 210    8.9226428398879e-16
 211    -3.3470090232526e-17
 212    -2.285427227974e-16
 213    0.0072382237619795
 214    6.0945080225616e-17
 215    2.0252623107836e-16
 216    -1.0919381576203e-16
 217    -1.3542375004036e-16
 218    -1.7552112349117e-05
 Sym= A
 Ene=               1
 Spin= Alpha
 Occup=    1.00000
   1    -3.2957289898891e-17
   2    -1.9106214256402e-16
   3    -1.3973202339028e-15
   4    6.078308242924e-17
   5    3.6946004897238e-17
   6      0.27851911427789
   7    -3.766892856566e-16
   8    -3.1629381442163e-15
   9      0.22352346864881
  10    -1.9310706747345e-17
  11     0.017868294906546
  12    -0.005552867076677
  13    5.795119189842e-16
  14    -1.8091434474602e-16
  15    4.7264792249382e-16
  16    1.0268045364458e-15
  17    7.4816502019016e-16
  18    3.694516320913e-16
  19    -1.2404427198642e-16
  20    0.0033331667040757
  21    -3.6471442633909e-16
  22    -1.6479407806326e-15
  23     0.002726865057168
  24    -2.0734737543089e-17
  25    -0.011564420540292
  26    -0.027422373219139
  27    -3.9549438315233e-16
  28    3.8524511459055e-16
  29    -3.9530135822151e-16
  30    -6.6343811673631e-16
  31    1.6763801065575e-15
  32    1.7738352479313e-16
  33    -3.7303988406602e-17
  34      0.27783894568295
  35    1.0624349619838e-15
  36    3.0476060879874e-15
  37      0.22501707932432
  38    2.7678829712661e-16
  39    -0.016349386702308
  40    0.0085317611198536
  41    6.1256909250028e-16
  42    -3.3026390768194e-16
  43    -4.5132815600019e-16
  44    -6.7786174952981e-16
  45    4.2252865130141e-15
  46    5.1430318630451e-16
  47    2.7219748626301e-17
  48     -0.27520521374058
  49    1.3012926326712e-15
  50    -1.4478570633781e-16
  51     -0.22091374190234
  52    -1.5205403498702e-16
  53    -0.016895753722982
  54    0.0088810089937619
  55    -1.2494449143166e-16
  56    -8.3776953395056e-16
  57    -3.1715873855473e-16
  58    -5.8314126255256e-16
  59    7.2258301683995e-16
  60    3.2814990381156e-16
  61    2.1250754829768e-16
  62    -0.003270794316193
  63    2.2456124977539e-15
  64    2.5954121226168e-15
  65    -0.0025806352512071
  66    -1.7880119568032e-16
  67    -0.011806449115735
  68    -0.027941494192826
  69    -8.5317163827445e-17
  70    -2.9189885332834e-16
  71    -4.8658874110598e-16
  72    -9.3272040944413e-16
  73    -3.1163268869747e-15
  74    2.520768866793e-16
  75    5.7049686344007e-16
  76     -0.28113432350747
  77    1.7934931352927e-15
  78    -5.5242909106358e-16
  79     -0.22768504582355
  80    -5.3695517167659e-17
  81       0.0172467478084
  82    -0.0054146038470999
  83    1.658895429356e-16
  84    4.1902361567609e-16
  85    1.7609231180252e-16
  86    -6.7981832938866e-18
  87    2.5788131443534e-15
  88    3.3308368982286e-16
  89    3.0904015045974e-16
  90    -0.00028210334186517
  91    2.3285111784302e-16
  92    -5.1737043047213e-15
  93    0.00010320128545981
  94    -7.6938559816014e-17
  95    -0.00021098604610247
  96    -0.0009868890289402
  97    2.1371951046738e-16
  98    3.7538274090184e-16
  99    1.6004232768883e-16
 100    5.4398014499239e-16
 101    -6.2834880365188e-15
 102    -2.3758948742433e-16
 103    3.838614439038e-16
 104    -0.00011677760494134
 105    3.2309191840495e-16
 106    -3.4543978615451e-15
 107    0.0052791396283218
 108    3.8833767327485e-16
 109    -0.0009733804915306
 110    0.00055228161321092
 111    1.7844216938486e-16
 112    -6.3695751031894e-16
 113    -1.4769560370005e-16
 114    -1.6612972271151e-16
 115    -1.6839726187547e-15
 116    2.2517895634904e-16
 117    -5.8550779941581e-16
 118    -0.0038873283124659
 119    -1.8590608957501e-15
 120    2.106028957065e-15
 121    -0.0065958229996594
 122    1.7146077789936e-16
 123    0.00017265310987042
 124    -0.00011671913512736
 125    3.2002767772117e-16
 126    -1.4225184079772e-16
 127    2.533471933325e-16
 128    5.0538336435409e-16
 129    -1.1384423660509e-15
 130    3.2705079668127e-17
 131     6.06238654725e-16
 132    -0.00032392912286354
 133    -1.4594391627872e-15
 134    -2.9153275097518e-15
 135    -0.00026574060205677
 136    -9.7966225463732e-17
 137    0.00010322560734102
 138    0.00026987384084659
 139    2.0696245194658e-16
 140    3.1029939079619e-16
 141    2.1854259397261e-16
 142    2.1196957389499e-16
 143    -1.1532714843687e-15
 144    1.0033305761186e-16
 145    1.422680830147e-16
 146    0.0039659722424844
 147    2.7347534227248e-15
 148    -1.4680742817313e-15
 149    0.0066111274093264
 150    -1.6630709096695e-17
 151    -0.00027018830069148
 152    0.00010195032661871
 153    -6.6706058249409e-17
 154    4.663019997586e-16
 155    -5.7596234045823e-17
 156    -3.8752808193135e-16
 157    4.764391582033e-15
 158    -1.4137360153522e-16
 159    1.3053941414453e-16
 160    0.00078588831242947
 161    1.6989318129528e-15
 162    2.1928013396991e-17
 163    -0.0044880105458272
 164    -3.0695109618844e-16
 165    0.0011178941752896
 166    -0.00031729692791859
 167    -2.0724030804069e-16
 168    -1.3185539436667e-16
 169    -1.509887422911e-16
 170    1.3840276942211e-15
 171    1.4847986073662e-16
 172    4.1401883302342e-16
 173    0.00012395812913323
 174    5.4881899505807e-16
 175    2.0325973409261e-15
 176    4.2595629074388e-16
 177    3.4844822267686e-16
 178     0.010496793432742
 179    -8.5900939512521e-16
 180    1.4424691327176e-16
 181    -6.7712926854012e-16
 182    -2.0218791701992e-16
 183    -0.010245242594374
 184    4.6435941133566e-17
 185    -7.3037061378199e-16
 186    -2.4765986326368e-16
 187    4.342227894445e-17
 188     -0.01062128588309
 189    4.8905779463037e-16
 190    -6.7262798291258e-16
 191    -3.9073471687865e-16
 192    -3.9945745373152e-17
 193    0.00034154299150692
 194    5.565488432012e-16
 195    7.0524327180888e-16
 196    2.8717375087306e-16
 197    -1.361593235529e-16
 198    -5.8792143832795e-05
 199    2.6628346260451e-16
 200    1.161395672258e-16
 201    7.3581790675527e-18
 202    4.6155776261821e-16
 203    -1.4866505668511e-05
 204    -6.1359575720235e-16
 205    -9.4806178520876e-18
 206    1.4419293159516e-16
 207    -2.9421533901506e-16
 208    -0.00037476384218579
 209    5.3547481180559e-16
 210    -2.0005361006639e-15
 211    -5.1776386498499e-16
 212    -2.8480175762986e-17
 213       0.0103678654342
 214    -5.8828632766019e-16
 215    2.0434089701437e-16
 216    5.1288756486745e-17
 217    -4.6650861545012e-16
 218    7.1200116768697e-05
 Sym= A
 Ene=               2
 Spin= Alpha
 Occup=    1.00000
   1    3.0874252738638e-16
   2    2.3793692265717e-16
   3    -3.8676762167777e-15
   4    3.6346276771789e-16
   5    3.8701328575119e-16
   6      0.15750262332054
   7    1.7087095870198e-15
   8    -3.3684651818374e-15
   9      0.12485449199825
  10    2.6403965642429e-17
  11    -0.010896022764059
  12     0.025005094114397
  13    2.6075012133569e-16
  14    3.2591831489481e-16
  15    -5.540790979576e-16
  16    -9.1382584989531e-16
  17    6.9598726869243e-15
  18    -2.1561357591114e-16
  19    3.3832412430405e-16
  20      0.32316488768504
  21    6.5594870066386e-16
  22    -3.7645733490468e-15
  23      0.26260517742913
  24    2.3406443286371e-17
  25     0.012192147947493
  26    -0.0048797192486823
  27    -1.7956514389442e-16
  28    -1.2827118402868e-16
  29    5.3434977159752e-16
  30    8.1889578223964e-16