[Molden Format]
made by pyscf v[2.0.1]
[Atoms] (AU)
C   1   6   -12.96446266473323    -0.82707338726680     0.00000000000000
C   2   6   -13.30706186601933     1.79016470768469     0.00000000000000
C   3   6   -10.53821237370529    -1.85986082750791     0.00000000000000
C   4   6   -11.17974231281547     3.35290792495641     0.00000000000000
C   5   6    -8.36309906903577    -0.32142676666723     0.00000000000000
C   6   6    -8.75639895309194     2.31345854363535     0.00000000000000
C   7   6    -5.76644016962649    -1.44258163436937     0.00000000000000
C   8   6    -5.38961479565901    -4.07621596506373     0.00000000000000
C   9   6    -2.95570955650329    -5.08096852097147     0.00000000000000
C   10   6    -0.84112333678574    -3.51193184541908     0.00000000000000
C   11   6    -1.12013366216107    -0.86586903847088     0.00000000000000
C   12   6    -3.59823506116150     0.09549522854951     0.00000000000000
H   13   1   -15.20541388925464     2.59964695004217     0.00000000000000
H   14   1   -10.35981099482530    -3.91099447423649     0.00000000000000
H   15   1   -11.39993034415081     5.40555505541686     0.00000000000000
H   16   1    -7.15259053846937     3.60490683939976     0.00000000000000
H   17   1    -6.98895030904707    -5.37162179878855     0.00000000000000
H   18   1    -2.70195054245478    -7.12936097577027     0.00000000000000
H   19   1     1.02540315437362    -4.37814711554208     0.00000000000000
H   20   1    -3.84909629339259     2.13178234629333     0.00000000000000
H   21   1   -14.60015047089398    -2.08671407141706     0.00000000000000
H   22   1     0.42896783027627     0.31885348899786     0.00000000000000
[GTO]
1 0
 s    8 1.00
                  6665  0.00069158396281299
                  1000  0.0053257961529341
                   228   0.027060721042034
                 64.71    0.10165684614077
                 21.06     0.2745748236174
                 7.495    0.44829431892377
                 2.797    0.28490261071525
                0.5215   0.015194859206082
 s    8 1.00
                  6665  -0.00029326965268655
                  1000  -0.0023180354739745
                   228  -0.011499786038565
                 64.71  -0.046826727009787
                 21.06   -0.12846616875047
                 7.495   -0.30126627246289
                 2.797   -0.25563070233011
                0.5215      1.093793361012
 s    1 1.00
                0.1596                   1
 p    3 1.00
                 9.439   0.056979251590039
                 2.002    0.31320721150073
                0.5456    0.76037674173753
 p    1 1.00
                0.1517                   1
 d    1 1.00
                  0.55                   1

2 0
 s    8 1.00
                  6665  0.00069158396281299
                  1000  0.0053257961529341
                   228   0.027060721042034
                 64.71    0.10165684614077
                 21.06     0.2745748236174
                 7.495    0.44829431892377
                 2.797    0.28490261071525
                0.5215   0.015194859206082
 s    8 1.00
                  6665  -0.00029326965268655
                  1000  -0.0023180354739745
                   228  -0.011499786038565
                 64.71  -0.046826727009787
                 21.06   -0.12846616875047
                 7.495   -0.30126627246289
                 2.797   -0.25563070233011
                0.5215      1.093793361012
 s    1 1.00
                0.1596                   1
 p    3 1.00
                 9.439   0.056979251590039
                 2.002    0.31320721150073
                0.5456    0.76037674173753
 p    1 1.00
                0.1517                   1
 d    1 1.00
                  0.55                   1

3 0
 s    8 1.00
                  6665  0.00069158396281299
                  1000  0.0053257961529341
                   228   0.027060721042034
                 64.71    0.10165684614077
                 21.06     0.2745748236174
                 7.495    0.44829431892377
                 2.797    0.28490261071525
                0.5215   0.015194859206082
 s    8 1.00
                  6665  -0.00029326965268655
                  1000  -0.0023180354739745
                   228  -0.011499786038565
                 64.71  -0.046826727009787
                 21.06   -0.12846616875047
                 7.495   -0.30126627246289
                 2.797   -0.25563070233011
                0.5215      1.093793361012
 s    1 1.00
                0.1596                   1
 p    3 1.00
                 9.439   0.056979251590039
                 2.002    0.31320721150073
                0.5456    0.76037674173753
 p    1 1.00
                0.1517                   1
 d    1 1.00
                  0.55                   1

4 0
 s    8 1.00
                  6665  0.00069158396281299
                  1000  0.0053257961529341
                   228   0.027060721042034
                 64.71    0.10165684614077
                 21.06     0.2745748236174
                 7.495    0.44829431892377
                 2.797    0.28490261071525
                0.5215   0.015194859206082
 s    8 1.00
                  6665  -0.00029326965268655
                  1000  -0.0023180354739745
                   228  -0.011499786038565
                 64.71  -0.046826727009787
                 21.06   -0.12846616875047
                 7.495   -0.30126627246289
                 2.797   -0.25563070233011
                0.5215      1.093793361012
 s    1 1.00
                0.1596                   1
 p    3 1.00
                 9.439   0.056979251590039
                 2.002    0.31320721150073
                0.5456    0.76037674173753
 p    1 1.00
                0.1517                   1
 d    1 1.00
                  0.55                   1

5 0
 s    8 1.00
                  6665  0.00069158396281299
                  1000  0.0053257961529341
                   228   0.027060721042034
                 64.71    0.10165684614077
                 21.06     0.2745748236174
                 7.495    0.44829431892377
                 2.797    0.28490261071525
                0.5215   0.015194859206082
 s    8 1.00
                  6665  -0.00029326965268655
                  1000  -0.0023180354739745
                   228  -0.011499786038565
                 64.71  -0.046826727009787
                 21.06   -0.12846616875047
                 7.495   -0.30126627246289
                 2.797   -0.25563070233011
                0.5215      1.093793361012
 s    1 1.00
                0.1596                   1
 p    3 1.00
                 9.439   0.056979251590039
                 2.002    0.31320721150073
                0.5456    0.76037674173753
 p    1 1.00
                0.1517                   1
 d    1 1.00
                  0.55                   1

6 0
 s    8 1.00
                  6665  0.00069158396281299
                  1000  0.0053257961529341
                   228   0.027060721042034
                 64.71    0.10165684614077
                 21.06     0.2745748236174
                 7.495    0.44829431892377
                 2.797    0.28490261071525
                0.5215   0.015194859206082
 s    8 1.00
                  6665  -0.00029326965268655
                  1000  -0.0023180354739745
                   228  -0.011499786038565
                 64.71  -0.046826727009787
                 21.06   -0.12846616875047
                 7.495   -0.30126627246289
                 2.797   -0.25563070233011
                0.5215      1.093793361012
 s    1 1.00
                0.1596                   1
 p    3 1.00
                 9.439   0.056979251590039
                 2.002    0.31320721150073
                0.5456    0.76037674173753
 p    1 1.00
                0.1517                   1
 d    1 1.00
                  0.55                   1

7 0
 s    8 1.00
                  6665  0.00069158396281299
                  1000  0.0053257961529341
                   228   0.027060721042034
                 64.71    0.10165684614077
                 21.06     0.2745748236174
                 7.495    0.44829431892377
                 2.797    0.28490261071525
                0.5215   0.015194859206082
 s    8 1.00
                  6665  -0.00029326965268655
                  1000  -0.0023180354739745
                   228  -0.011499786038565
                 64.71  -0.046826727009787
                 21.06   -0.12846616875047
                 7.495   -0.30126627246289
                 2.797   -0.25563070233011
                0.5215      1.093793361012
 s    1 1.00
                0.1596                   1
 p    3 1.00
                 9.439   0.056979251590039
                 2.002    0.31320721150073
                0.5456    0.76037674173753
 p    1 1.00
                0.1517                   1
 d    1 1.00
                  0.55                   1

8 0
 s    8 1.00
                  6665  0.00069158396281299
                  1000  0.0053257961529341
                   228   0.027060721042034
                 64.71    0.10165684614077
                 21.06     0.2745748236174
                 7.495    0.44829431892377
                 2.797    0.28490261071525
                0.5215   0.015194859206082
 s    8 1.00
                  6665  -0.00029326965268655
                  1000  -0.0023180354739745
                   228  -0.011499786038565
                 64.71  -0.046826727009787
                 21.06   -0.12846616875047
                 7.495   -0.30126627246289
                 2.797   -0.25563070233011
                0.5215      1.093793361012
 s    1 1.00
                0.1596                   1
 p    3 1.00
                 9.439   0.056979251590039
                 2.002    0.31320721150073
                0.5456    0.76037674173753
 p    1 1.00
                0.1517                   1
 d    1 1.00
                  0.55                   1

9 0
 s    8 1.00
                  6665  0.00069158396281299
                  1000  0.0053257961529341
                   228   0.027060721042034
                 64.71    0.10165684614077
                 21.06     0.2745748236174
                 7.495    0.44829431892377
                 2.797    0.28490261071525
                0.5215   0.015194859206082
 s    8 1.00
                  6665  -0.00029326965268655
                  1000  -0.0023180354739745
                   228  -0.011499786038565
                 64.71  -0.046826727009787
                 21.06   -0.12846616875047
                 7.495   -0.30126627246289
                 2.797   -0.25563070233011
                0.5215      1.093793361012
 s    1 1.00
                0.1596                   1
 p    3 1.00
                 9.439   0.056979251590039
                 2.002    0.31320721150073
                0.5456    0.76037674173753
 p    1 1.00
                0.1517                   1
 d    1 1.00
                  0.55                   1

10 0
 s    8 1.00
                  6665  0.00069158396281299
                  1000  0.0053257961529341
                   228   0.027060721042034
                 64.71    0.10165684614077
                 21.06     0.2745748236174
                 7.495    0.44829431892377
                 2.797    0.28490261071525
                0.5215   0.015194859206082
 s    8 1.00
                  6665  -0.00029326965268655
                  1000  -0.0023180354739745
                   228  -0.011499786038565
                 64.71  -0.046826727009787
                 21.06   -0.12846616875047
                 7.495   -0.30126627246289
                 2.797   -0.25563070233011
                0.5215      1.093793361012
 s    1 1.00
                0.1596                   1
 p    3 1.00
                 9.439   0.056979251590039
                 2.002    0.31320721150073
                0.5456    0.76037674173753
 p    1 1.00
                0.1517                   1
 d    1 1.00
                  0.55                   1

11 0
 s    8 1.00
                  6665  0.00069158396281299
                  1000  0.0053257961529341
                   228   0.027060721042034
                 64.71    0.10165684614077
                 21.06     0.2745748236174
                 7.495    0.44829431892377
                 2.797    0.28490261071525
                0.5215   0.015194859206082
 s    8 1.00
                  6665  -0.00029326965268655
                  1000  -0.0023180354739745
                   228  -0.011499786038565
                 64.71  -0.046826727009787
                 21.06   -0.12846616875047
                 7.495   -0.30126627246289
                 2.797   -0.25563070233011
                0.5215      1.093793361012
 s    1 1.00
                0.1596                   1
 p    3 1.00
                 9.439   0.056979251590039
                 2.002    0.31320721150073
                0.5456    0.76037674173753
 p    1 1.00
                0.1517                   1
 d    1 1.00
                  0.55                   1

12 0
 s    8 1.00
                  6665  0.00069158396281299
                  1000  0.0053257961529341
                   228   0.027060721042034
                 64.71    0.10165684614077
                 21.06     0.2745748236174
                 7.495    0.44829431892377
                 2.797    0.28490261071525
                0.5215   0.015194859206082
 s    8 1.00
                  6665  -0.00029326965268655
                  1000  -0.0023180354739745
                   228  -0.011499786038565
                 64.71  -0.046826727009787
                 21.06   -0.12846616875047
                 7.495   -0.30126627246289
                 2.797   -0.25563070233011
                0.5215      1.093793361012
 s    1 1.00
                0.1596                   1
 p    3 1.00
                 9.439   0.056979251590039
                 2.002    0.31320721150073
                0.5456    0.76037674173753
 p    1 1.00
                0.1517                   1
 d    1 1.00
                  0.55                   1

13 0
 s    3 1.00
                 13.01   0.033498726389998
                 1.962    0.23480080117413
                0.4446     0.8136829578829
 s    1 1.00
                 0.122                   1
 p    1 1.00
                 0.727                   1

14 0
 s    3 1.00
                 13.01   0.033498726389998
                 1.962    0.23480080117413
                0.4446     0.8136829578829
 s    1 1.00
                 0.122                   1
 p    1 1.00
                 0.727                   1

15 0
 s    3 1.00
                 13.01   0.033498726389998
                 1.962    0.23480080117413
                0.4446     0.8136829578829
 s    1 1.00
                 0.122                   1
 p    1 1.00
                 0.727                   1

16 0
 s    3 1.00
                 13.01   0.033498726389998
                 1.962    0.23480080117413
                0.4446     0.8136829578829
 s    1 1.00
                 0.122                   1
 p    1 1.00
                 0.727                   1

17 0
 s    3 1.00
                 13.01   0.033498726389998
                 1.962    0.23480080117413
                0.4446     0.8136829578829
 s    1 1.00
                 0.122                   1
 p    1 1.00
                 0.727                   1

18 0
 s    3 1.00
                 13.01   0.033498726389998
                 1.962    0.23480080117413
                0.4446     0.8136829578829
 s    1 1.00
                 0.122                   1
 p    1 1.00
                 0.727                   1

19 0
 s    3 1.00
                 13.01   0.033498726389998
                 1.962    0.23480080117413
                0.4446     0.8136829578829
 s    1 1.00
                 0.122                   1
 p    1 1.00
                 0.727                   1

20 0
 s    3 1.00
                 13.01   0.033498726389998
                 1.962    0.23480080117413
                0.4446     0.8136829578829
 s    1 1.00
                 0.122                   1
 p    1 1.00
                 0.727                   1

21 0
 s    3 1.00
                 13.01   0.033498726389998
                 1.962    0.23480080117413
                0.4446     0.8136829578829
 s    1 1.00
                 0.122                   1
 p    1 1.00
                 0.727                   1

22 0
 s    3 1.00
                 13.01   0.033498726389998
                 1.962    0.23480080117413
                0.4446     0.8136829578829
 s    1 1.00
                 0.122                   1
 p    1 1.00
                 0.727                   1

[5d]
[7f]
[9g]

[MO]
 Sym= A
 Ene=               0
 Spin= Alpha
 Occup=    1.00000
   1    -3.12532054515e-17
   2    1.0965642720994e-16
   3    1.1816528805899e-15
   4    5.6185619956154e-16
   5    4.8431534032302e-16
   6      0.21509889743312
   7    -3.2294804359412e-16
   8    9.2027836271268e-16
   9       0.1289696793625
  10    -1.373933957578e-16
  11     0.012859411027409
  12    0.0088708774893977
  13    4.9502824729735e-16
  14    1.7846001936336e-16
  15    -5.4721418502094e-17
  16    -3.2191426070699e-16
  17    -5.3804368588731e-16
  18    1.9344264182699e-16
  19    4.9212336720978e-16
  20      0.21104690480494
  21    -1.7622586143632e-15
  22    7.1856533204159e-16
  23      0.12373392338934
  24    -3.0214150497371e-16
  25     0.014647629859308
  26    -0.0062570787317828
  27    -1.0795144559477e-16
  28    -9.5785812967325e-17
  29    -5.3810348525024e-17
  30    8.5377272741142e-17
  31    1.7070130213193e-16
  32    4.4693948765393e-16
  33    3.0763969973283e-16
  34      0.21842018891081
  35    7.6330182836444e-16
  36    -1.8310611013802e-16
  37      0.13197462287143
  38    -1.1144786168651e-16
  39    -0.0017664344819105
  40     0.015353308255467
  41    -6.5560046427373e-17
  42    1.4410477179169e-16
  43    -2.3676687692701e-16
  44    -1.4827836538973e-16
  45    2.5703247349617e-15
  46    -2.2467695377024e-16
  47    1.613935058276e-16
  48      0.21510858521862
  49    1.2468889839134e-15
  50    -9.3393642945445e-16
  51      0.12898262266856
  52    2.1614145048267e-17
  53    0.0024901506621475
  54    -0.015431492719919
  55    -3.4828245289336e-16
  56    -1.0362515291258e-16
  57    4.0376219552458e-16
  58    3.8937751388885e-16
  59    -6.4798782108251e-15
  60    -1.6861430027456e-16
  61    3.4391332539489e-16
  62      0.21692990649398
  63    -1.9775233310405e-15
  64    5.2719234673802e-16
  65      0.12962273449814
  66    -5.5158271866624e-17
  67    -0.013529138223131
  68    0.0057593623061876
  69    -2.4389409056016e-16
  70    -1.3537925212719e-16
  71    8.6202619353905e-18
  72    1.5683016159871e-17
  73    -7.2023127177139e-16
  74    1.0124601278082e-16
  75    -6.406453507367e-18
  76      0.21846773304545
  77    1.2282958402386e-15
  78    -1.1772484620812e-15
  79      0.13195523043345
  80    1.3120510066596e-16
  81    -0.012315965048025
  82    -0.0093435490407677
  83    6.294085499937e-17
  84    1.7624206866768e-16
  85    -5.0157764194907e-16
  86    -3.6213390350411e-16
  87    3.6479258330814e-15
  88    -8.4869808956059e-17
  89    1.6178491883991e-16
  90     0.015295406346424
  91    -3.0500501496176e-15
  92    3.4521943523827e-15
  93    -0.010508964195112
  94    -4.0138863133401e-17
  95    -0.010617360440021
  96        0.004564966889
  97    1.4407652006988e-17
  98    -1.3775161915183e-16
  99    -1.9808957204976e-16
 100    -4.1403985576487e-16
 101    9.0035852020631e-16
 102    -5.4714914074202e-17
 103    -7.9273865560172e-17
 104    -0.017156025525469
 105    -6.6674714188868e-16
 106    1.4657780938864e-15
 107    -0.016879108010995
 108    -1.6421704110481e-16
 109    -0.00054953128045707
 110    0.00074063091159363
 111    -1.8444652785829e-16
 112    -2.5881385475737e-16
 113    -1.1585728484283e-16
 114    2.0213890901097e-16
 115    7.6126273371774e-16
 116    2.9381538175434e-16
 117    2.4939598694967e-18
 118    -0.0014948894347734
 119    -1.7457391266558e-15
 120    1.1168033203954e-15
 121    -0.00057960671791462
 122    -1.1730203634386e-17
 123     0.001940630428181
 124    -0.00036009291197854
 125    -1.2375001964482e-16
 126    2.5607828742091e-16
 127    4.5627546526016e-17
 128    -5.7297922493535e-18
 129    -2.9499493751871e-16
 130    5.7095888528472e-17
 131    2.0334342573923e-18
 132     0.012158143911947
 133    1.9858718011071e-16
 134    -3.5343263167885e-16
 135     0.014522065917867
 136    1.534870478241e-16
 137    0.00015370227739039
 138    -8.0248424082302e-05
 139    -3.1453051281991e-16
 140    4.5674675693821e-18
 141    -8.8281599197239e-18
 142    8.3849312850259e-17
 143    -2.1537536272606e-15
 144    -1.4788102854333e-16
 145    -7.629629139371e-17
 146    -0.0015039178162035
 147    5.1654668048859e-16
 148    -6.536100823624e-16
 149    -0.00058634391058731
 150    1.8978817370862e-16
 151    0.0015511853342656
 152    -0.0010954587434853
 153    -8.9754127200765e-17
 154    1.9535356385589e-16
 155    1.6828742177616e-16
 156    2.5767274811325e-16
 157    -2.47850235484e-16
 158    -4.041181483761e-16
 159    -1.0818571869907e-16
 160    -0.017220834044282
 161    3.267194866714e-15
 162    -1.0833712333786e-15
 163    -0.017093571257969
 164    -4.2125032979753e-17
 165    -0.00091942608182824
 166    -0.00012323890444807
 167    8.8958178656802e-17
 168    -1.9436946891124e-16
 169    -8.1461367399339e-17
 170    -1.6631507533562e-15
 171    1.3807868501915e-16
 172    5.3365407320411e-17
 173    0.0071936976528297
 174    -3.3890631900437e-16
 175    7.6597643572572e-16
 176    2.8275706107593e-18
 177    -1.5786072250809e-16
 178    0.0075261976374859
 179    5.8349135199128e-19
 180    7.4111382050081e-17
 181    1.4789169635122e-16
 182    7.9331337390224e-17
 183    0.0072401045765474
 184    1.0293251432027e-16
 185    -2.8269367131397e-16
 186    1.7707628497274e-16
 187    2.4669030686265e-16
 188    0.0075311441881914
 189    -1.2311235981777e-16
 190    -3.4942417315103e-16
 191    1.734804597859e-17
 192    1.9200427277742e-16
 193    -0.00027752280350246
 194    -8.4080590127561e-17
 195    1.0614201031552e-15
 196    1.8820875561143e-16
 197    5.6214408657535e-17
 198    -4.537091654054e-06
 199    3.752415951891e-16
 200    -4.9565859001342e-17
 201    -1.3035915531973e-16
 202    1.8986835276413e-17
 203    0.00050661098087494
 204    3.015688326847e-16
 205    8.3957545170708e-16
 206    -1.3305982051817e-16
 207    -5.1813616497173e-17
 208    -0.00026478352322338
 209    -2.7283306587392e-16
 210    8.9214028707797e-16
 211    -3.3650242624137e-17
 212    -2.2849571022887e-16
 213    0.0072389856144452
 214    6.0768493926961e-17
 215    2.0252224783455e-16
 216    -1.0925058274837e-16
 217    -1.3562485544568e-16
 218    -2.3769280387603e-05
 Sym= A
 Ene=               1
 Spin= Alpha
 Occup=    1.00000
   1    2.4585811109014e-16
   2    2.3668435867867e-16
   3    -3.881416202245e-15
   4    3.6373439132767e-16
   5    3.8712932639372e-16
   6      0.15925781314026
   7    1.7053352592614e-15
   8    -3.3901693857523e-15
   9      0.12625809411946
  10    2.6740997101589e-17
  11     -0.01077896612681
  12     0.024964499061067
  13    2.6462316706225e-16
  14    3.2477481896686e-16
  15    -5.6878981424763e-16
  16    -9.0613302816651e-16
  17    6.9673054589667e-15
  18    -2.127516249582e-16
  19    3.3731805818665e-16
  20        0.323092879201
  21    6.5307061865002e-16
  22    -3.7746052452413e-15
  23      0.26255014482648
  24    2.3616302121952e-17
  25     0.012117009659306
  26    -0.0050536436907881
  27    -1.8251053968376e-16
  28    -1.2598279922532e-16
  29    5.0542015567776e-16
  30    8.1439359203591e-16
  31    -2.5275402366895e-15
  32    -4.2761973112145e-17
  33    2.7484265230724e-16
  34     -0.15856733509738
  35    1.2160906747928e-15
  36    -7.9813630169204e-16
  37     -0.13110216281919
  38    -1.3918648780596e-16
  39    -0.025280025006785
  40    -0.009153873596406
  41    -3.0271113856555e-16
  42    2.1995115104446e-16
  43    3.8371839195638e-16
  44    8.9112312683834e-16
  45    -4.3494206604759e-15
  46    -1.2417447169824e-16
  47    -8.1366295338111e-17
  48      0.16138403761061
  49    -1.1215322099719e-15
  50    1.7161749997814e-15
  51      0.12792745294802
  52    -1.6044443055409e-16
  53    -0.025355143508631
  54    -0.0095496633747096
  55    -2.1257443839733e-17
  56    3.4441533678722e-17
  57    -2.3718128394576e-17
  58    -2.7964692131158e-17
  59    1.9035577767244e-15
  60    -2.8868671209559e-16
  61    1.9594936692595e-16
  62     -0.32134377537251
  63    1.3873859404996e-15
  64    1.3853769226506e-15
  65     -0.24984868712787
  66    1.2408996472691e-16
  67    0.0093788527241261
  68    -0.0038427141169761
  69    -1.7297850052985e-16
  70    1.6780637181053e-16
  71    -1.3182791598143e-16
  72    -4.4093553690334e-16
  73    2.2875292538603e-16
  74    3.2891475058892e-16
  75    -4.0320105430846e-16
  76     -0.15641347607715
  77    -3.3737453986924e-15
  78    1.1322359960142e-15
  79     -0.12929616721192
  80    -3.9651771306024e-17
  81    -0.010998078265142
  82     0.024644868535288
  83    1.7342973317359e-16
  84    1.2275363172436e-16
  85    -3.1029713842995e-16
  86    -5.5764809327608e-16
  87    8.9709980250383e-16
  88    6.4281594585539e-17
  89    -1.1476058502286e-17
  90    -0.035232256911545
  91    -3.2633788646869e-16
  92    -2.6063282763961e-15
  93    0.0030360480805528
  94    1.246706216635e-16
  95     0.018094952581181
  96    -0.0077819061861771
  97    2.2179366295045e-16
  98    7.9628722478756e-17
  99    3.6479552347948e-16
 100    3.8263135830444e-16
 101    -2.0676789689607e-15
 102    1.7463781841345e-16
 103    7.9433458458521e-17
 104     0.035367738401518
 105    1.4141538724124e-15
 106    -1.0651105603859e-15
 107     0.037825181980962
 108    3.7519963202746e-17
 109    0.0017952177166691
 110    -0.001677932491504
 111    5.0888152640165e-17
 112    -3.9604175012348e-17
 113    1.4872080512739e-16
 114    1.0554736486778e-16
 115    1.7484278221462e-16
 116    -5.4136627275289e-17
 117    -1.0284521247777e-16
 118    0.0043234631275846
 119    1.2209835016849e-15
 120    3.2365209462174e-16
 121    0.0046742981032226
 122    1.8658917137273e-16
 123    -0.0041767929280937
 124    0.00067423145328064
 125    -3.4253841208992e-17
 126    1.9697428944766e-16
 127    8.7618330980993e-17
 128    1.3602253926186e-16
 129    -2.8725548697832e-15
 130    5.033116420699e-17
 131    -1.0256990835509e-16
 132    -0.027344603109898
 133    6.4429388467999e-16
 134    -4.8431532817157e-16
 135     -0.03503289193882
 136    5.8853059118498e-17
 137    -0.00045577714404949
 138     0.000242812091745
 139    -4.1244356591709e-17
 140    -2.1458387533942e-16
 141    -3.1087148240616e-16
 142    -3.2986101838868e-16
 143    4.7195433089523e-15
 144    1.8609466080068e-17
 145    -1.0354964892567e-16
 146    0.0043904829731166
 147    -2.0193567718808e-15
 148    -7.3719518532318e-16
 149     0.004557897207466
 150    -7.5015864791712e-17
 151    -0.003262183597677
 152    0.0024496743741034
 153    1.6682946586232e-16
 154    3.2736383621126e-17
 155    -1.4346591700409e-16
 156    9.3260452527895e-17
 157    -1.4019802935554e-15
 158    1.5543053843902e-16
 159    -3.3919689747837e-16
 160     0.035418232053261
 161    -2.8526685285669e-15
 162    1.9547614529365e-15
 163     0.038326537449711
 164    7.7280897973905e-17
 165    0.0024620304437267
 166    -0.00011016142300699
 167    -5.2532722910866e-17
 168    3.136524962765e-16
 169    1.7328080851494e-16
 170    -6.7392880081682e-16
 171    8.4493412118709e-17
 172    2.7308234526512e-17
 173     0.012062946600755
 174    -3.3668477069527e-16
 175    4.4547211504573e-16
 176    4.0286342237612e-17
 177    -2.1752728684017e-16
 178    -0.0059496858648025
 179    2.4772854165249e-17
 180    -1.1931780583784e-17
 181    -7.4380732837856e-17
 182    -8.2293668671121e-17
 183    0.0060451473481436
 184    6.9077936926302e-17
 185    1.6394068913589e-15
 186    7.7438499850693e-18
 187    -1.0204620358838e-16
 188    -0.0058753613120088
 189    3.7481484759817e-16
 190    4.684749365267e-16
 191    1.4709928783868e-16
 192    -1.9986476899614e-16
 193    0.00083437846010318
 194    -1.8738070789784e-16
 195    -1.4372406585655e-16
 196    -1.3902104551528e-16
 197    -1.4232440773957e-16
 198    -2.5610493924117e-05
 199    -3.7426613809212e-17
 200    1.4039939529633e-16
 201    5.4922339420121e-17
 202    7.4406134484657e-17
 203    -0.0011516278753405
 204    -2.2603256627745e-17
 205    -8.2467752104592e-16
 206    -4.7479486760961e-17
 207    -2.3050997960763e-16
 208    0.00077171811606954
 209    4.9976135109359e-17
 210    9.456180534661e-16
 211    -4.1588833562517e-17
 212    -1.0138533874061e-16
 213    0.0059634010193088
 214    -6.5344016221885e-17
 215    7.0453416496335e-16
 216    1.4788544959792e-16
 217    -6.5286174409841e-17
 218    1.7579118524303e-05
 Sym= A
 Ene=               2
 Spin= Alpha
 Occup=    1.00000
   1    1.2572483688467e-17
   2    1.924883020442e-16
   3    1.3726467085754e-15
   4    -5.8302611596476e-17
   5    -3.4718205642553e-17
   6     -0.27749465180194
   7    3.8785798460453e-16
   8    3.1410274059283e-15
   9     -0.22272304934735
  10    1.9506546403318e-17
  11    -0.017937959016954
  12    0.0057126911231607
  13    -5.7779421057941e-16
  14    1.8295449603284e-16
  15    -5.1853552586905e-16
  16    -1.0327761270456e-15
  17    -7.0340063978249e-16
  18    -3.7078248733168e-16
  19    1.2638125119866e-16
  20    -0.0012802900349444
  21    3.6873687916179e-16
  22    1.6237432770302e-15
  23    -0.0010458835057194
  24    2.0873364882236e-17
  25     0.011641930782035
  26      0.02739070808171
  27    3.9433860790929e-16
  28    -3.8604064476961e-16
  29    3.961780428726e-16
  30    6.6882990115808e-16