[Molden Format]
made by pyscf v[2.0.1]
[Atoms] (AU)
C   1   6   -12.96446266473323    -0.82707338726680     0.00000000000000
C   2   6   -13.30706186601933     1.79016470768469     0.00000000000000
C   3   6   -10.53821237370529    -1.85986082750791     0.00000000000000
C   4   6   -11.17974231281547     3.35290792495641     0.00000000000000
C   5   6    -8.36309906903577    -0.32142676666723     0.00000000000000
C   6   6    -8.75639895309194     2.31345854363535     0.00000000000000
C   7   6    -5.76644016962649    -1.44258163436937     0.00000000000000
C   8   6    -5.38961479565901    -4.07621596506373     0.00000000000000
C   9   6    -2.95570955650329    -5.08096852097147     0.00000000000000
C   10   6    -0.84112333678574    -3.51193184541908     0.00000000000000
C   11   6    -1.12013366216107    -0.86586903847088     0.00000000000000
C   12   6    -3.59823506116150     0.09549522854951     0.00000000000000
H   13   1   -15.20541388925464     2.59964695004217     0.00000000000000
H   14   1   -10.35981099482530    -3.91099447423649     0.00000000000000
H   15   1   -11.39993034415081     5.40555505541686     0.00000000000000
H   16   1    -7.15259053846937     3.60490683939976     0.00000000000000
H   17   1    -6.98895030904707    -5.37162179878855     0.00000000000000
H   18   1    -2.70195054245478    -7.12936097577027     0.00000000000000
H   19   1     1.02540315437362    -4.37814711554208     0.00000000000000
H   20   1    -3.84909629339259     2.13178234629333     0.00000000000000
H   21   1   -14.60015047089398    -2.08671407141706     0.00000000000000
H   22   1     0.42896783027627     0.31885348899786     0.00000000000000
[GTO]
1 0
 s    8 1.00
                  6665  0.00069158396281299
                  1000  0.0053257961529341
                   228   0.027060721042034
                 64.71    0.10165684614077
                 21.06     0.2745748236174
                 7.495    0.44829431892377
                 2.797    0.28490261071525
                0.5215   0.015194859206082
 s    8 1.00
                  6665  -0.00029326965268655
                  1000  -0.0023180354739745
                   228  -0.011499786038565
                 64.71  -0.046826727009787
                 21.06   -0.12846616875047
                 7.495   -0.30126627246289
                 2.797   -0.25563070233011
                0.5215      1.093793361012
 s    1 1.00
                0.1596                   1
 p    3 1.00
                 9.439   0.056979251590039
                 2.002    0.31320721150073
                0.5456    0.76037674173753
 p    1 1.00
                0.1517                   1
 d    1 1.00
                  0.55                   1

2 0
 s    8 1.00
                  6665  0.00069158396281299
                  1000  0.0053257961529341
                   228   0.027060721042034
                 64.71    0.10165684614077
                 21.06     0.2745748236174
                 7.495    0.44829431892377
                 2.797    0.28490261071525
                0.5215   0.015194859206082
 s    8 1.00
                  6665  -0.00029326965268655
                  1000  -0.0023180354739745
                   228  -0.011499786038565
                 64.71  -0.046826727009787
                 21.06   -0.12846616875047
                 7.495   -0.30126627246289
                 2.797   -0.25563070233011
                0.5215      1.093793361012
 s    1 1.00
                0.1596                   1
 p    3 1.00
                 9.439   0.056979251590039
                 2.002    0.31320721150073
                0.5456    0.76037674173753
 p    1 1.00
                0.1517                   1
 d    1 1.00
                  0.55                   1

3 0
 s    8 1.00
                  6665  0.00069158396281299
                  1000  0.0053257961529341
                   228   0.027060721042034
                 64.71    0.10165684614077
                 21.06     0.2745748236174
                 7.495    0.44829431892377
                 2.797    0.28490261071525
                0.5215   0.015194859206082
 s    8 1.00
                  6665  -0.00029326965268655
                  1000  -0.0023180354739745
                   228  -0.011499786038565
                 64.71  -0.046826727009787
                 21.06   -0.12846616875047
                 7.495   -0.30126627246289
                 2.797   -0.25563070233011
                0.5215      1.093793361012
 s    1 1.00
                0.1596                   1
 p    3 1.00
                 9.439   0.056979251590039
                 2.002    0.31320721150073
                0.5456    0.76037674173753
 p    1 1.00
                0.1517                   1
 d    1 1.00
                  0.55                   1

4 0
 s    8 1.00
                  6665  0.00069158396281299
                  1000  0.0053257961529341
                   228   0.027060721042034
                 64.71    0.10165684614077
                 21.06     0.2745748236174
                 7.495    0.44829431892377
                 2.797    0.28490261071525
                0.5215   0.015194859206082
 s    8 1.00
                  6665  -0.00029326965268655
                  1000  -0.0023180354739745
                   228  -0.011499786038565
                 64.71  -0.046826727009787
                 21.06   -0.12846616875047
                 7.495   -0.30126627246289
                 2.797   -0.25563070233011
                0.5215      1.093793361012
 s    1 1.00
                0.1596                   1
 p    3 1.00
                 9.439   0.056979251590039
                 2.002    0.31320721150073
                0.5456    0.76037674173753
 p    1 1.00
                0.1517                   1
 d    1 1.00
                  0.55                   1

5 0
 s    8 1.00
                  6665  0.00069158396281299
                  1000  0.0053257961529341
                   228   0.027060721042034
                 64.71    0.10165684614077
                 21.06     0.2745748236174
                 7.495    0.44829431892377
                 2.797    0.28490261071525
                0.5215   0.015194859206082
 s    8 1.00
                  6665  -0.00029326965268655
                  1000  -0.0023180354739745
                   228  -0.011499786038565
                 64.71  -0.046826727009787
                 21.06   -0.12846616875047
                 7.495   -0.30126627246289
                 2.797   -0.25563070233011
                0.5215      1.093793361012
 s    1 1.00
                0.1596                   1
 p    3 1.00
                 9.439   0.056979251590039
                 2.002    0.31320721150073
                0.5456    0.76037674173753
 p    1 1.00
                0.1517                   1
 d    1 1.00
                  0.55                   1

6 0
 s    8 1.00
                  6665  0.00069158396281299
                  1000  0.0053257961529341
                   228   0.027060721042034
                 64.71    0.10165684614077
                 21.06     0.2745748236174
                 7.495    0.44829431892377
                 2.797    0.28490261071525
                0.5215   0.015194859206082
 s    8 1.00
                  6665  -0.00029326965268655
                  1000  -0.0023180354739745
                   228  -0.011499786038565
                 64.71  -0.046826727009787
                 21.06   -0.12846616875047
                 7.495   -0.30126627246289
                 2.797   -0.25563070233011
                0.5215      1.093793361012
 s    1 1.00
                0.1596                   1
 p    3 1.00
                 9.439   0.056979251590039
                 2.002    0.31320721150073
                0.5456    0.76037674173753
 p    1 1.00
                0.1517                   1
 d    1 1.00
                  0.55                   1

7 0
 s    8 1.00
                  6665  0.00069158396281299
                  1000  0.0053257961529341
                   228   0.027060721042034
                 64.71    0.10165684614077
                 21.06     0.2745748236174
                 7.495    0.44829431892377
                 2.797    0.28490261071525
                0.5215   0.015194859206082
 s    8 1.00
                  6665  -0.00029326965268655
                  1000  -0.0023180354739745
                   228  -0.011499786038565
                 64.71  -0.046826727009787
                 21.06   -0.12846616875047
                 7.495   -0.30126627246289
                 2.797   -0.25563070233011
                0.5215      1.093793361012
 s    1 1.00
                0.1596                   1
 p    3 1.00
                 9.439   0.056979251590039
                 2.002    0.31320721150073
                0.5456    0.76037674173753
 p    1 1.00
                0.1517                   1
 d    1 1.00
                  0.55                   1

8 0
 s    8 1.00
                  6665  0.00069158396281299
                  1000  0.0053257961529341
                   228   0.027060721042034
                 64.71    0.10165684614077
                 21.06     0.2745748236174
                 7.495    0.44829431892377
                 2.797    0.28490261071525
                0.5215   0.015194859206082
 s    8 1.00
                  6665  -0.00029326965268655
                  1000  -0.0023180354739745
                   228  -0.011499786038565
                 64.71  -0.046826727009787
                 21.06   -0.12846616875047
                 7.495   -0.30126627246289
                 2.797   -0.25563070233011
                0.5215      1.093793361012
 s    1 1.00
                0.1596                   1
 p    3 1.00
                 9.439   0.056979251590039
                 2.002    0.31320721150073
                0.5456    0.76037674173753
 p    1 1.00
                0.1517                   1
 d    1 1.00
                  0.55                   1

9 0
 s    8 1.00
                  6665  0.00069158396281299
                  1000  0.0053257961529341
                   228   0.027060721042034
                 64.71    0.10165684614077
                 21.06     0.2745748236174
                 7.495    0.44829431892377
                 2.797    0.28490261071525
                0.5215   0.015194859206082
 s    8 1.00
                  6665  -0.00029326965268655
                  1000  -0.0023180354739745
                   228  -0.011499786038565
                 64.71  -0.046826727009787
                 21.06   -0.12846616875047
                 7.495   -0.30126627246289
                 2.797   -0.25563070233011
                0.5215      1.093793361012
 s    1 1.00
                0.1596                   1
 p    3 1.00
                 9.439   0.056979251590039
                 2.002    0.31320721150073
                0.5456    0.76037674173753
 p    1 1.00
                0.1517                   1
 d    1 1.00
                  0.55                   1

10 0
 s    8 1.00
                  6665  0.00069158396281299
                  1000  0.0053257961529341
                   228   0.027060721042034
                 64.71    0.10165684614077
                 21.06     0.2745748236174
                 7.495    0.44829431892377
                 2.797    0.28490261071525
                0.5215   0.015194859206082
 s    8 1.00
                  6665  -0.00029326965268655
                  1000  -0.0023180354739745
                   228  -0.011499786038565
                 64.71  -0.046826727009787
                 21.06   -0.12846616875047
                 7.495   -0.30126627246289
                 2.797   -0.25563070233011
                0.5215      1.093793361012
 s    1 1.00
                0.1596                   1
 p    3 1.00
                 9.439   0.056979251590039
                 2.002    0.31320721150073
                0.5456    0.76037674173753
 p    1 1.00
                0.1517                   1
 d    1 1.00
                  0.55                   1

11 0
 s    8 1.00
                  6665  0.00069158396281299
                  1000  0.0053257961529341
                   228   0.027060721042034
                 64.71    0.10165684614077
                 21.06     0.2745748236174
                 7.495    0.44829431892377
                 2.797    0.28490261071525
                0.5215   0.015194859206082
 s    8 1.00
                  6665  -0.00029326965268655
                  1000  -0.0023180354739745
                   228  -0.011499786038565
                 64.71  -0.046826727009787
                 21.06   -0.12846616875047
                 7.495   -0.30126627246289
                 2.797   -0.25563070233011
                0.5215      1.093793361012
 s    1 1.00
                0.1596                   1
 p    3 1.00
                 9.439   0.056979251590039
                 2.002    0.31320721150073
                0.5456    0.76037674173753
 p    1 1.00
                0.1517                   1
 d    1 1.00
                  0.55                   1

12 0
 s    8 1.00
                  6665  0.00069158396281299
                  1000  0.0053257961529341
                   228   0.027060721042034
                 64.71    0.10165684614077
                 21.06     0.2745748236174
                 7.495    0.44829431892377
                 2.797    0.28490261071525
                0.5215   0.015194859206082
 s    8 1.00
                  6665  -0.00029326965268655
                  1000  -0.0023180354739745
                   228  -0.011499786038565
                 64.71  -0.046826727009787
                 21.06   -0.12846616875047
                 7.495   -0.30126627246289
                 2.797   -0.25563070233011
                0.5215      1.093793361012
 s    1 1.00
                0.1596                   1
 p    3 1.00
                 9.439   0.056979251590039
                 2.002    0.31320721150073
                0.5456    0.76037674173753
 p    1 1.00
                0.1517                   1
 d    1 1.00
                  0.55                   1

13 0
 s    3 1.00
                 13.01   0.033498726389998
                 1.962    0.23480080117413
                0.4446     0.8136829578829
 s    1 1.00
                 0.122                   1
 p    1 1.00
                 0.727                   1

14 0
 s    3 1.00
                 13.01   0.033498726389998
                 1.962    0.23480080117413
                0.4446     0.8136829578829
 s    1 1.00
                 0.122                   1
 p    1 1.00
                 0.727                   1

15 0
 s    3 1.00
                 13.01   0.033498726389998
                 1.962    0.23480080117413
                0.4446     0.8136829578829
 s    1 1.00
                 0.122                   1
 p    1 1.00
                 0.727                   1

16 0
 s    3 1.00
                 13.01   0.033498726389998
                 1.962    0.23480080117413
                0.4446     0.8136829578829
 s    1 1.00
                 0.122                   1
 p    1 1.00
                 0.727                   1

17 0
 s    3 1.00
                 13.01   0.033498726389998
                 1.962    0.23480080117413
                0.4446     0.8136829578829
 s    1 1.00
                 0.122                   1
 p    1 1.00
                 0.727                   1

18 0
 s    3 1.00
                 13.01   0.033498726389998
                 1.962    0.23480080117413
                0.4446     0.8136829578829
 s    1 1.00
                 0.122                   1
 p    1 1.00
                 0.727                   1

19 0
 s    3 1.00
                 13.01   0.033498726389998
                 1.962    0.23480080117413
                0.4446     0.8136829578829
 s    1 1.00
                 0.122                   1
 p    1 1.00
                 0.727                   1

20 0
 s    3 1.00
                 13.01   0.033498726389998
                 1.962    0.23480080117413
                0.4446     0.8136829578829
 s    1 1.00
                 0.122                   1
 p    1 1.00
                 0.727                   1

21 0
 s    3 1.00
                 13.01   0.033498726389998
                 1.962    0.23480080117413
                0.4446     0.8136829578829
 s    1 1.00
                 0.122                   1
 p    1 1.00
                 0.727                   1

22 0
 s    3 1.00
                 13.01   0.033498726389998
                 1.962    0.23480080117413
                0.4446     0.8136829578829
 s    1 1.00
                 0.122                   1
 p    1 1.00
                 0.727                   1

[5d]
[7f]
[9g]

[MO]
 Sym= A
 Ene=               0
 Spin= Alpha
 Occup=    1.00000
   1    -2.1938472179625e-17
   2    1.165600364415e-16
   3    1.0411471758944e-15
   4    5.7935852192549e-16
   5    4.9283059671379e-16
   6      0.22015689009184
   7    -2.2589635651835e-16
   8    7.5586238361883e-16
   9      0.13298697896952
  10    -1.3363033544522e-16
  11     0.012364778221926
  12    0.0097980709137776
  13    5.0798992898718e-16
  14    1.8508379835517e-16
  15    -6.957656641146e-17
  16    -3.4249294734194e-16
  17    -2.2989549272033e-16
  18    1.8691259807558e-16
  19    4.9984809232699e-16
  20      0.22266516306968
  21    -1.7349794807546e-15
  22    5.4828430806315e-16
  23      0.13375912929757
  24    -3.0037755852656e-16
  25     0.015029188274209
  26    -0.0064198266200379
  27    -1.1663374600798e-16
  28    -9.8377045943429e-17
  29    -3.2719754110492e-17
  30    1.223456990914e-16
  31    -1.6626856256729e-17
  32    4.5101063915516e-16
  33    3.2333661573594e-16
  34      0.21172392810261
  35    8.048043348429e-16
  36    -2.9471711257302e-16
  37       0.1260804165469
  38    -1.1180426766658e-16
  39    -0.0025433104719362
  40     0.015019900506002
  41    -7.1169064728954e-17
  42    1.3944195235624e-16
  43    -2.2248431285933e-16
  44    -1.0851092073744e-16
  45    2.4300003623848e-15
  46    -2.2595942593022e-16
  47    1.5934628491382e-16
  48      0.22016945124359
  49    1.224622576172e-15
  50    -8.6233992402767e-16
  51      0.13300610829045
  52    1.7091524353696e-17
  53    0.0014784505172131
  54    -0.015715392424363
  55    -3.5272834113973e-16
  56    -1.1215985010105e-16
  57    3.9843275796757e-16
  58    3.8324318460461e-16
  59    -6.3702945955606e-15
  60    -1.7781437020298e-16
  61    3.5585426518747e-16
  62      0.20697070892511
  63    -2.0241898508998e-15
  64    6.1359326460983e-16
  65      0.12087357307108
  66    -5.3564286982629e-17
  67    -0.012576707496287
  68    0.0053512096122268
  69    -2.4179692549839e-16
  70    -1.2764357241643e-16
  71    2.3537718528781e-18
  72    -6.9358746681499e-18
  73    -7.703904965879e-16
  74    1.0906242941605e-16
  75    -1.9122266401986e-17
  76      0.21176990174681
  77     1.12299659157e-15
  78    -1.1316373168644e-15
  79        0.126059123771
  80    1.3457369007907e-16
  81    -0.012613760138891
  82    -0.0085510309120061
  83    7.1878064666999e-17
  84    1.8607987458219e-16
  85    -5.1756040207527e-16
  86    -3.9401407754558e-16
  87    3.8003521307902e-15
  88    -8.0338943610955e-17
  89    1.6559457623737e-16
  90     0.024230035291303
  91    -3.1251713415921e-15
  92    3.3209943881519e-15
  93    -0.0018831725249598
  94    -3.8983934775054e-17
  95    -0.0096800912892291
  96    0.0041501444863533
  97    2.4361867453731e-17
  98    -1.3404929464909e-16
  99    -1.7802693262131e-16
 100    -3.8782401853098e-16
 101    7.2866363087782e-16
 102    -4.8303495375881e-17
 103    -7.1606463786192e-17
 104    -0.0099093785744013
 105    -5.9030273880743e-16
 106    1.3852713932945e-15
 107    -0.011042096675016
 108    -1.608480877457e-16
 109    -0.0008393145739477
 110    0.0015170662065568
 111    -1.8174406622929e-16
 112    -2.6614377431988e-16
 113    -1.1115567089465e-16
 114    1.998817404626e-16
 115    7.0562009673067e-16
 116    2.9423028470538e-16
 117    -8.3565302992054e-18
 118    -0.0062531524404293
 119    -1.743695757657e-15
 120    1.1531979625729e-15
 121    -0.0045328885587946
 122    -1.1935726975427e-18
 123    0.00093323210527016
 124    -0.00064086361918561
 125    -1.1295657157758e-16
 126    2.619653503862e-16
 127    5.1735649380914e-17
 128    1.2507211735672e-17
 129    -4.5486450147501e-16
 130    5.3179259953464e-17
 131    -8.7792220842929e-19
 132    -6.188538755546e-05
 133    1.7630144398598e-16
 134    -4.5146118489624e-16
 135    0.0046104300096439
 136    1.5577571388889e-16
 137    0.00051276255245502
 138    -0.0002407766622011
 139    -3.1183608860743e-16
 140    -3.587905172745e-19
 141    -2.2210000269057e-17
 142    7.2969137759843e-17
 143    -1.9358158545917e-15
 144    -1.520411139368e-16
 145    -7.8773166490741e-17
 146    -0.0065200780727939
 147    4.9694322622177e-16
 148    -7.3982655762865e-16
 149    -0.004803173403807
 150    1.8510122412228e-16
 151    0.0011012448995087
 152    -0.00020114004272091
 153    -8.4522870743555e-17
 154    1.9625768897756e-16
 155    1.6019277039354e-16
 156    2.6016013910883e-16
 157    -2.3035376078541e-16
 158    -4.035339370458e-16
 159    -1.2121442733539e-16
 160    -0.010282301033229
 161    3.1827895842415e-15
 162    -1.0115656566423e-15
 163    -0.011485758027969
 164    -4.834688726864e-17
 165    -0.0017042207119587
 166    -0.00043926433706646
 167    8.2946829157779e-17
 168    -1.8219535411188e-16
 169    -7.4520586206702e-17
 170    -1.6822891634915e-15
 171    1.3723769683968e-16
 172    6.1455635261674e-17
 173    0.0076364951419245
 174    -3.4730089783575e-16
 175    7.3455043244274e-16
 176    7.9355046745471e-18
 177    -1.6829217805948e-16
 178    0.0072878644871856
 179    2.7914900305368e-18
 180    6.0741670435899e-17
 181    1.3836767210887e-16
 182    7.166030550554e-17
 183    0.0074371174462394
 184    1.069653607668e-16
 185    -2.0900754625211e-16
 186    1.7422141910788e-16
 187    2.3694959456189e-16
 188    0.0072917292766862
 189    -1.0809217023968e-16
 190    -3.1397523924128e-16
 191    1.503276267868e-17
 192    1.899958708018e-16
 193    -4.114798354776e-05
 194    -8.1141532894686e-17
 195    1.0702454813732e-15
 196    1.8838650011163e-16
 197    5.6459362888633e-17
 198    -0.00019811127425888
 199    3.8958977380101e-16
 200    -4.0646022148822e-17
 201    -1.2622811507197e-16
 202    2.7507787199728e-17
 203    6.8691747876543e-05
 204    2.9207420324705e-16
 205    8.1296224727353e-16
 206    -1.3552110230466e-16
 207    -6.2472933308806e-17
 208    -4.4122703881611e-05
 209    -2.6496377695635e-16
 210    9.1979099093247e-16
 211    -4.2360634951511e-17
 212    -2.3073199179753e-16
 213    0.0074357202202588
 214    4.8395335129248e-17
 215    2.2903713579723e-16
 216    -1.0611248293563e-16
 217    -1.4469262097927e-16
 218    -0.00024406637426648
 Sym= A
 Ene=               1
 Spin= Alpha
 Occup=    1.00000
   1    2.4499448941266e-16
   2    2.2742202234142e-16
   3    -3.8840829899783e-15
   4    3.4350382513513e-16
   5    3.6943684472942e-16
   6      0.15186358918617
   7    1.7215176454156e-15
   8    -3.478558138208e-15
   9       0.1217115498431
  10    2.7167313633769e-17
  11    -0.011252041399441
  12     0.024667230505251
  13    2.4159442070355e-16
  14    3.1705082799495e-16
  15    -5.6234109258114e-16
  16    -8.8692361755114e-16
  17    7.0121660843139e-15
  18    -2.168534789008e-16
  19    3.1986941181232e-16
  20      0.31609490975711
  21    7.1362451256579e-16
  22    -3.8110630577982e-15
  23      0.25846237250154
  24    3.3000080564917e-17
  25     0.011600064658415
  26     -0.00483331890155
  27    -1.6966469547019e-16
  28    -1.2479893592977e-16
  29    5.0368549391531e-16
  30    8.0665644264436e-16
  31    -2.4780662742973e-15
  32    -5.5351466171842e-17
  33    2.6634456396694e-16
  34     -0.16667810168454
  35    1.2957863467749e-15
  36    -7.5617728764787e-16
  37     -0.13596385182447
  38    -1.382706545238e-16
  39    -0.025165017780037
  40    -0.0096621712474657
  41    -2.9653015261461e-16
  42    2.1670089954134e-16
  43    3.9251433605447e-16
  44    9.0678944135188e-16
  45    -4.4679863932078e-15
  46    -1.09670978828e-16
  47    -8.4783957562726e-17
  48      0.15397606459894
  49    -1.1892573713471e-15
  50    1.7336816776324e-15
  51      0.12335819939766
  52    -1.5166830964349e-16
  53    -0.025468626413473
  54    -0.0090015472932729
  55    -1.5958143463316e-17
  56    3.3426383514273e-17
  57    -3.7891821585259e-17
  58    -3.9102426705632e-17
  59    2.0855323205018e-15
  60    -2.73793792798e-16
  61    1.9249827718126e-16
  62      -0.3288281481133
  63    1.4648085718291e-15
  64    1.5202337303871e-15
  65     -0.25431048722497
  66    1.2915273450972e-16
  67     0.010154555542552
  68    -0.0041730861302276
  69    -1.6516500565874e-16
  70    1.7488862755666e-16
  71    -1.2901061308436e-16
  72    -4.3660147865244e-16
  73    1.7710806350876e-16
  74    3.1722498689839e-16
  75    -4.022881411161e-16
  76     -0.16453076025409
  77    -3.4188049097461e-15
  78    1.2658598365136e-15
  79     -0.13414198554583
  80    -3.9167398949305e-17
  81    -0.010548303504237
  82     0.024911340680715
  83    1.7248610246241e-16
  84    1.1986157443793e-16
  85    -2.981243044675e-16
  86    -5.5804273168207e-16
  87    8.507560630151e-16
  88    6.9028264824383e-17
  89    -1.7373395790169e-17
  90    -0.024095738508127
  91    -2.6626209023578e-16
  92    -2.8167542297063e-15
  93    0.0073015187893897
  94    1.2158655359982e-16
  95     0.018880533115432
  96    -0.0080703121846764
  97    2.2662957519219e-16
  98    7.6124924490553e-17
  99    3.6534373753152e-16
 100    3.819308760353e-16
 101    -2.2052185665752e-15
 102    1.8239670771375e-16
 103     8.37890296472e-17
 104     0.039678353706361
 105    1.4009288071884e-15
 106    -1.1693241833935e-15
 107     0.042182170759375
 108    4.450377632048e-17
 109    0.0022191031597943
 110    -0.0014157058676896
 111    5.2343134905459e-17
 112    -2.6822491451553e-17
 113    1.5172298455575e-16
 114    1.0207659144291e-16
 115    2.0208423435198e-16
 116    -6.9084399519806e-17
 117    -1.1139887220916e-16
 118     0.010122497501185
 119    1.2589970665482e-15
 120    3.3610112481624e-16
 121    0.0088616133816712
 122    1.8639327965951e-16
 123    -0.0042573541119511
 124    0.0011936925917437
 125    -2.8877669848498e-17
 126    1.8534072600647e-16
 127    8.2960437523237e-17
 128    1.3423408720091e-16
 129    -2.8189291423581e-15
 130    5.6809988283325e-17
 131    -9.955467727122e-17
 132    -0.016833969970344
 133    6.5617585516741e-16
 134    -4.4400983292991e-16
 135    -0.030957930780536
 136    5.6674770410738e-17
 137    -0.00093683913893685
 138    0.00048246672204398
 139    -2.9124835918127e-17
 140    -2.1247869374055e-16
 141    -3.0648789571867e-16
 142    -3.2527292627206e-16
 143    4.8048717733359e-15
 144    2.6929829076134e-17
 145    -1.0253982187197e-16
 146      0.01076022178479
 147    -2.0993069143103e-15
 148    -6.4312480350281e-16
 149    0.0093734034061876
 150    -7.852886023163e-17
 151    -0.0037533311844171
 152    0.0021496543227196
 153    1.7329172592251e-16
 154    2.9818734996319e-17
 155    -1.4313925264668e-16
 156    8.3981127144094e-17
 157    -1.4253482638226e-15
 158    1.6755425283538e-16
 159    -3.3732991628821e-16
 160     0.040575793469343
 161    -3.0402463141024e-15
 162    1.9811951171474e-15
 163     0.043349979829559
 164    8.2686358268051e-17
 165    0.0026033458592934
 166    -0.00059640688998023
 167    -6.0401146659857e-17
 168    3.1660379069451e-16
 169    1.6650270454104e-16
 170    -6.1656970306104e-16
 171    7.5813586493137e-17
 172    2.7706234366626e-17
 173     0.011818985817134
 174    -3.3795268589015e-16
 175    4.5686242888818e-16
 176    3.4379899752566e-17
 177    -2.0940252553139e-16
 178    -0.0062078513075247
 179    3.0977766532894e-17
 180    -1.1639048142586e-17
 181    -7.0613968920219e-17
 182    -8.7908101132957e-17
 183    0.0057910288402297
 184    6.6956229701875e-17
 185    1.6143538844582e-15
 186    7.1294368353625e-18
 187    -1.0511921502911e-16
 188    -0.0061326894100356
 189    3.8494186640125e-16
 190    4.3993123888358e-16
 191    1.468172894755e-16
 192    -2.0117639308046e-16
 193    0.0010684339790822
 194    -1.9077636419158e-16
 195    -1.5632702369286e-16
 196    -1.3806060856808e-16
 197    -1.4314822345501e-16
 198    0.00020968316992214
 199    -5.9033385227724e-17
 200    1.5106511554427e-16
 201    5.6670058906777e-17
 202    7.0504958793689e-17
 203    -0.00091163701926302
 204    -2.4732757181488e-17
 205    -8.4561011916942e-16
 206    -4.8124753065001e-17
 207    -2.3406793086135e-16
 208    0.0010330246678742
 209    5.2050268205211e-17
 210    8.991886869449e-16
 211    -4.2406541676743e-17
 212    -9.6949242490587e-17
 213    0.0057095065213096
 214    -7.0436389155089e-17
 215     7.04802948251e-16
 216    1.5065647462874e-16
 217    -6.8808416159382e-17
 218    0.00030919551730011
 Sym= A
 Ene=               2
 Spin= Alpha
 Occup=    1.00000
   1    1.2606652894778e-17
   2    1.9258892360263e-16
   3    1.3718577769126e-15
   4    -5.8239845880275e-17
   5    -3.4646950134723e-17
   6     -0.27746755336168
   7    3.8757284250529e-16
   8    3.141538878476e-15
   9     -0.22270443386266
  10    1.9603814615428e-17
  11    -0.017936175630806
  12    0.0057140427528337
  13    -5.7772789687414e-16
  14    1.8296983507439e-16
  15    -5.1854313976687e-16
  16    -1.0328122428128e-15
  17    -7.0347679580473e-16
  18    -3.7075039983496e-16
  19    1.2642671746179e-16
  20    -0.0012500018606458
  21    3.687409916259e-16
  22    1.6238244390511e-15
  23    -0.0010278239935553
  24    2.0850977934157e-17
  25     0.011644055149753
  26     0.027389808886041
  27    3.942772216944e-16
  28    -3.8611078965143e-16
  29    3.9622041627323e-16
  30    6.6890422708165e-16