[Molden Format]
made by pyscf v[2.0.1]
[Atoms] (AU)
C   1   6   -12.96446266473323    -0.82707338726680     0.00000000000000
C   2   6   -13.30706186601933     1.79016470768469     0.00000000000000
C   3   6   -10.53821237370529    -1.85986082750791     0.00000000000000
C   4   6   -11.17974231281547     3.35290792495641     0.00000000000000
C   5   6    -8.36309906903577    -0.32142676666723     0.00000000000000
C   6   6    -8.75639895309194     2.31345854363535     0.00000000000000
C   7   6    -5.76644016962649    -1.44258163436937     0.00000000000000
C   8   6    -5.38961479565901    -4.07621596506373     0.00000000000000
C   9   6    -2.95570955650329    -5.08096852097147     0.00000000000000
C   10   6    -0.84112333678574    -3.51193184541908     0.00000000000000
C   11   6    -1.12013366216107    -0.86586903847088     0.00000000000000
C   12   6    -3.59823506116150     0.09549522854951     0.00000000000000
H   13   1   -15.20541388925464     2.59964695004217     0.00000000000000
H   14   1   -10.35981099482530    -3.91099447423649     0.00000000000000
H   15   1   -11.39993034415081     5.40555505541686     0.00000000000000
H   16   1    -7.15259053846937     3.60490683939976     0.00000000000000
H   17   1    -6.98895030904707    -5.37162179878855     0.00000000000000
H   18   1    -2.70195054245478    -7.12936097577027     0.00000000000000
H   19   1     1.02540315437362    -4.37814711554208     0.00000000000000
H   20   1    -3.84909629339259     2.13178234629333     0.00000000000000
H   21   1   -14.60015047089398    -2.08671407141706     0.00000000000000
H   22   1     0.42896783027627     0.31885348899786     0.00000000000000
[GTO]
1 0
 s    8 1.00
                  6665  0.00069158396281299
                  1000  0.0053257961529341
                   228   0.027060721042034
                 64.71    0.10165684614077
                 21.06     0.2745748236174
                 7.495    0.44829431892377
                 2.797    0.28490261071525
                0.5215   0.015194859206082
 s    8 1.00
                  6665  -0.00029326965268655
                  1000  -0.0023180354739745
                   228  -0.011499786038565
                 64.71  -0.046826727009787
                 21.06   -0.12846616875047
                 7.495   -0.30126627246289
                 2.797   -0.25563070233011
                0.5215      1.093793361012
 s    1 1.00
                0.1596                   1
 p    3 1.00
                 9.439   0.056979251590039
                 2.002    0.31320721150073
                0.5456    0.76037674173753
 p    1 1.00
                0.1517                   1
 d    1 1.00
                  0.55                   1

2 0
 s    8 1.00
                  6665  0.00069158396281299
                  1000  0.0053257961529341
                   228   0.027060721042034
                 64.71    0.10165684614077
                 21.06     0.2745748236174
                 7.495    0.44829431892377
                 2.797    0.28490261071525
                0.5215   0.015194859206082
 s    8 1.00
                  6665  -0.00029326965268655
                  1000  -0.0023180354739745
                   228  -0.011499786038565
                 64.71  -0.046826727009787
                 21.06   -0.12846616875047
                 7.495   -0.30126627246289
                 2.797   -0.25563070233011
                0.5215      1.093793361012
 s    1 1.00
                0.1596                   1
 p    3 1.00
                 9.439   0.056979251590039
                 2.002    0.31320721150073
                0.5456    0.76037674173753
 p    1 1.00
                0.1517                   1
 d    1 1.00
                  0.55                   1

3 0
 s    8 1.00
                  6665  0.00069158396281299
                  1000  0.0053257961529341
                   228   0.027060721042034
                 64.71    0.10165684614077
                 21.06     0.2745748236174
                 7.495    0.44829431892377
                 2.797    0.28490261071525
                0.5215   0.015194859206082
 s    8 1.00
                  6665  -0.00029326965268655
                  1000  -0.0023180354739745
                   228  -0.011499786038565
                 64.71  -0.046826727009787
                 21.06   -0.12846616875047
                 7.495   -0.30126627246289
                 2.797   -0.25563070233011
                0.5215      1.093793361012
 s    1 1.00
                0.1596                   1
 p    3 1.00
                 9.439   0.056979251590039
                 2.002    0.31320721150073
                0.5456    0.76037674173753
 p    1 1.00
                0.1517                   1
 d    1 1.00
                  0.55                   1

4 0
 s    8 1.00
                  6665  0.00069158396281299
                  1000  0.0053257961529341
                   228   0.027060721042034
                 64.71    0.10165684614077
                 21.06     0.2745748236174
                 7.495    0.44829431892377
                 2.797    0.28490261071525
                0.5215   0.015194859206082
 s    8 1.00
                  6665  -0.00029326965268655
                  1000  -0.0023180354739745
                   228  -0.011499786038565
                 64.71  -0.046826727009787
                 21.06   -0.12846616875047
                 7.495   -0.30126627246289
                 2.797   -0.25563070233011
                0.5215      1.093793361012
 s    1 1.00
                0.1596                   1
 p    3 1.00
                 9.439   0.056979251590039
                 2.002    0.31320721150073
                0.5456    0.76037674173753
 p    1 1.00
                0.1517                   1
 d    1 1.00
                  0.55                   1

5 0
 s    8 1.00
                  6665  0.00069158396281299
                  1000  0.0053257961529341
                   228   0.027060721042034
                 64.71    0.10165684614077
                 21.06     0.2745748236174
                 7.495    0.44829431892377
                 2.797    0.28490261071525
                0.5215   0.015194859206082
 s    8 1.00
                  6665  -0.00029326965268655
                  1000  -0.0023180354739745
                   228  -0.011499786038565
                 64.71  -0.046826727009787
                 21.06   -0.12846616875047
                 7.495   -0.30126627246289
                 2.797   -0.25563070233011
                0.5215      1.093793361012
 s    1 1.00
                0.1596                   1
 p    3 1.00
                 9.439   0.056979251590039
                 2.002    0.31320721150073
                0.5456    0.76037674173753
 p    1 1.00
                0.1517                   1
 d    1 1.00
                  0.55                   1

6 0
 s    8 1.00
                  6665  0.00069158396281299
                  1000  0.0053257961529341
                   228   0.027060721042034
                 64.71    0.10165684614077
                 21.06     0.2745748236174
                 7.495    0.44829431892377
                 2.797    0.28490261071525
                0.5215   0.015194859206082
 s    8 1.00
                  6665  -0.00029326965268655
                  1000  -0.0023180354739745
                   228  -0.011499786038565
                 64.71  -0.046826727009787
                 21.06   -0.12846616875047
                 7.495   -0.30126627246289
                 2.797   -0.25563070233011
                0.5215      1.093793361012
 s    1 1.00
                0.1596                   1
 p    3 1.00
                 9.439   0.056979251590039
                 2.002    0.31320721150073
                0.5456    0.76037674173753
 p    1 1.00
                0.1517                   1
 d    1 1.00
                  0.55                   1

7 0
 s    8 1.00
                  6665  0.00069158396281299
                  1000  0.0053257961529341
                   228   0.027060721042034
                 64.71    0.10165684614077
                 21.06     0.2745748236174
                 7.495    0.44829431892377
                 2.797    0.28490261071525
                0.5215   0.015194859206082
 s    8 1.00
                  6665  -0.00029326965268655
                  1000  -0.0023180354739745
                   228  -0.011499786038565
                 64.71  -0.046826727009787
                 21.06   -0.12846616875047
                 7.495   -0.30126627246289
                 2.797   -0.25563070233011
                0.5215      1.093793361012
 s    1 1.00
                0.1596                   1
 p    3 1.00
                 9.439   0.056979251590039
                 2.002    0.31320721150073
                0.5456    0.76037674173753
 p    1 1.00
                0.1517                   1
 d    1 1.00
                  0.55                   1

8 0
 s    8 1.00
                  6665  0.00069158396281299
                  1000  0.0053257961529341
                   228   0.027060721042034
                 64.71    0.10165684614077
                 21.06     0.2745748236174
                 7.495    0.44829431892377
                 2.797    0.28490261071525
                0.5215   0.015194859206082
 s    8 1.00
                  6665  -0.00029326965268655
                  1000  -0.0023180354739745
                   228  -0.011499786038565
                 64.71  -0.046826727009787
                 21.06   -0.12846616875047
                 7.495   -0.30126627246289
                 2.797   -0.25563070233011
                0.5215      1.093793361012
 s    1 1.00
                0.1596                   1
 p    3 1.00
                 9.439   0.056979251590039
                 2.002    0.31320721150073
                0.5456    0.76037674173753
 p    1 1.00
                0.1517                   1
 d    1 1.00
                  0.55                   1

9 0
 s    8 1.00
                  6665  0.00069158396281299
                  1000  0.0053257961529341
                   228   0.027060721042034
                 64.71    0.10165684614077
                 21.06     0.2745748236174
                 7.495    0.44829431892377
                 2.797    0.28490261071525
                0.5215   0.015194859206082
 s    8 1.00
                  6665  -0.00029326965268655
                  1000  -0.0023180354739745
                   228  -0.011499786038565
                 64.71  -0.046826727009787
                 21.06   -0.12846616875047
                 7.495   -0.30126627246289
                 2.797   -0.25563070233011
                0.5215      1.093793361012
 s    1 1.00
                0.1596                   1
 p    3 1.00
                 9.439   0.056979251590039
                 2.002    0.31320721150073
                0.5456    0.76037674173753
 p    1 1.00
                0.1517                   1
 d    1 1.00
                  0.55                   1

10 0
 s    8 1.00
                  6665  0.00069158396281299
                  1000  0.0053257961529341
                   228   0.027060721042034
                 64.71    0.10165684614077
                 21.06     0.2745748236174
                 7.495    0.44829431892377
                 2.797    0.28490261071525
                0.5215   0.015194859206082
 s    8 1.00
                  6665  -0.00029326965268655
                  1000  -0.0023180354739745
                   228  -0.011499786038565
                 64.71  -0.046826727009787
                 21.06   -0.12846616875047
                 7.495   -0.30126627246289
                 2.797   -0.25563070233011
                0.5215      1.093793361012
 s    1 1.00
                0.1596                   1
 p    3 1.00
                 9.439   0.056979251590039
                 2.002    0.31320721150073
                0.5456    0.76037674173753
 p    1 1.00
                0.1517                   1
 d    1 1.00
                  0.55                   1

11 0
 s    8 1.00
                  6665  0.00069158396281299
                  1000  0.0053257961529341
                   228   0.027060721042034
                 64.71    0.10165684614077
                 21.06     0.2745748236174
                 7.495    0.44829431892377
                 2.797    0.28490261071525
                0.5215   0.015194859206082
 s    8 1.00
                  6665  -0.00029326965268655
                  1000  -0.0023180354739745
                   228  -0.011499786038565
                 64.71  -0.046826727009787
                 21.06   -0.12846616875047
                 7.495   -0.30126627246289
                 2.797   -0.25563070233011
                0.5215      1.093793361012
 s    1 1.00
                0.1596                   1
 p    3 1.00
                 9.439   0.056979251590039
                 2.002    0.31320721150073
                0.5456    0.76037674173753
 p    1 1.00
                0.1517                   1
 d    1 1.00
                  0.55                   1

12 0
 s    8 1.00
                  6665  0.00069158396281299
                  1000  0.0053257961529341
                   228   0.027060721042034
                 64.71    0.10165684614077
                 21.06     0.2745748236174
                 7.495    0.44829431892377
                 2.797    0.28490261071525
                0.5215   0.015194859206082
 s    8 1.00
                  6665  -0.00029326965268655
                  1000  -0.0023180354739745
                   228  -0.011499786038565
                 64.71  -0.046826727009787
                 21.06   -0.12846616875047
                 7.495   -0.30126627246289
                 2.797   -0.25563070233011
                0.5215      1.093793361012
 s    1 1.00
                0.1596                   1
 p    3 1.00
                 9.439   0.056979251590039
                 2.002    0.31320721150073
                0.5456    0.76037674173753
 p    1 1.00
                0.1517                   1
 d    1 1.00
                  0.55                   1

13 0
 s    3 1.00
                 13.01   0.033498726389998
                 1.962    0.23480080117413
                0.4446     0.8136829578829
 s    1 1.00
                 0.122                   1
 p    1 1.00
                 0.727                   1

14 0
 s    3 1.00
                 13.01   0.033498726389998
                 1.962    0.23480080117413
                0.4446     0.8136829578829
 s    1 1.00
                 0.122                   1
 p    1 1.00
                 0.727                   1

15 0
 s    3 1.00
                 13.01   0.033498726389998
                 1.962    0.23480080117413
                0.4446     0.8136829578829
 s    1 1.00
                 0.122                   1
 p    1 1.00
                 0.727                   1

16 0
 s    3 1.00
                 13.01   0.033498726389998
                 1.962    0.23480080117413
                0.4446     0.8136829578829
 s    1 1.00
                 0.122                   1
 p    1 1.00
                 0.727                   1

17 0
 s    3 1.00
                 13.01   0.033498726389998
                 1.962    0.23480080117413
                0.4446     0.8136829578829
 s    1 1.00
                 0.122                   1
 p    1 1.00
                 0.727                   1

18 0
 s    3 1.00
                 13.01   0.033498726389998
                 1.962    0.23480080117413
                0.4446     0.8136829578829
 s    1 1.00
                 0.122                   1
 p    1 1.00
                 0.727                   1

19 0
 s    3 1.00
                 13.01   0.033498726389998
                 1.962    0.23480080117413
                0.4446     0.8136829578829
 s    1 1.00
                 0.122                   1
 p    1 1.00
                 0.727                   1

20 0
 s    3 1.00
                 13.01   0.033498726389998
                 1.962    0.23480080117413
                0.4446     0.8136829578829
 s    1 1.00
                 0.122                   1
 p    1 1.00
                 0.727                   1

21 0
 s    3 1.00
                 13.01   0.033498726389998
                 1.962    0.23480080117413
                0.4446     0.8136829578829
 s    1 1.00
                 0.122                   1
 p    1 1.00
                 0.727                   1

22 0
 s    3 1.00
                 13.01   0.033498726389998
                 1.962    0.23480080117413
                0.4446     0.8136829578829
 s    1 1.00
                 0.122                   1
 p    1 1.00
                 0.727                   1

[5d]
[7f]
[9g]

[MO]
 Sym= A
 Ene=               0
 Spin= Alpha
 Occup=    1.00000
   1    -2.0117363524042e-17
   2    1.2249310483549e-16
   3    1.0022074465559e-15
   4    5.7682729917811e-16
   5    4.9799335915804e-16
   6      0.22017461550089
   7    -2.3478818752801e-16
   8    8.3262338507559e-16
   9      0.13303694151242
  10    -1.288850637437e-16
  11     0.012405196308088
  12    0.0097717215800573
  13    5.1512780344497e-16
  14    1.8705404678553e-16
  15    -7.7751919245749e-17
  16    -3.5775351637442e-16
  17    -2.762861254952e-16
  18    1.8284919198961e-16
  19    5.0030152298646e-16
  20      0.22233713579322
  21    -1.7350498989709e-15
  22    5.712933665235e-16
  23      0.13331550450596
  24    -2.9730677065559e-16
  25     0.015033627364092
  26    -0.0064223419631177
  27    -1.2940708793101e-16
  28    -9.4853488397056e-17
  29    -2.8335645891974e-17
  30    1.2726100334834e-16
  31    -7.5441485650679e-17
  32    4.4247159290382e-16
  33    3.1827071632361e-16
  34      0.21195502156824
  35    6.6900891775327e-16
  36    -3.2745419047791e-16
  37      0.12649982824831
  38    -1.0929283008485e-16
  39    -0.0026271922480234
  40     0.014975792982711
  41    -7.7798802245664e-17
  42    1.379356453725e-16
  43    -2.2413263614431e-16
  44    -1.2640234143196e-16
  45    2.4671865917019e-15
  46    -2.3533741980758e-16
  47    1.5946374820169e-16
  48      0.22018013042961
  49    1.250724104409e-15
  50    -8.4354629979408e-16
  51      0.13305748813482
  52    3.0315050925065e-18
  53    0.0015251744301978
  54    -0.015726320375621
  55    -3.4299865490303e-16
  56    -1.0327859708964e-16
  57    3.9760405797997e-16
  58    3.7800495330614e-16
  59    -6.3129730660925e-15
  60    -1.9202567626665e-16
  61    3.423374342782e-16
  62      0.20540155686095
  63    -1.9986894791026e-15
  64    3.8951181717447e-16
  65      0.12079204928477
  66    -5.7988877877776e-17
  67    -0.013065543354408
  68    0.0055604332739884
  69    -2.3999087568486e-16
  70    -1.2993567708046e-16
  71    8.9516792083706e-20
  72    -9.5279199959119e-18
  73    -6.5713211709162e-16
  74    1.2086675232398e-16
  75    -2.1512306211691e-17
  76      0.21199220315038
  77    1.1076572564704e-15
  78    -1.2720070025457e-15
  79      0.12645730199177
  80    1.2733031225584e-16
  81    -0.012640406749437
  82    -0.0084588412592135
  83    7.0360350183633e-17
  84    1.7929037658686e-16
  85    -5.1017130736155e-16
  86    -3.7310417450696e-16
  87    3.6808746990469e-15
  88    -8.3235675443488e-17
  89    1.6618217303044e-16
  90     0.013354653263538
  91    -3.0347701752728e-15
  92    3.4337626192599e-15
  93    -0.0081847980228796
  94    -3.2403655891086e-17
  95    -0.010324423310045
  96    0.0044021491356723
  97    1.6338323711353e-17
  98    -1.2053054248461e-16
  99    -1.685936545657e-16
 100    -3.6573945472463e-16
 101    8.9625874683508e-16
 102    -5.720635183747e-17
 103    -7.2988019694179e-17
 104     -0.02079428406382
 105    -5.2745776726535e-16
 106    1.4414103458212e-15
 107    -0.017444863939531
 108    -1.6218436030973e-16
 109    -0.0015043273936855
 110    0.0010571815489298
 111    -1.7418694922429e-16
 112    -2.6920322607807e-16
 113    -1.0866449252701e-16
 114    1.956129185703e-16
 115    6.1497965510305e-16
 116    2.9890135728698e-16
 117    6.1067327022561e-18
 118    -0.017741625000951
 119    -1.6834349256879e-15
 120    1.0668269115591e-15
 121    -0.011437504964768
 122    -3.0224372551176e-19
 123    0.00099299752183739
 124    -0.0014541401724549
 125    -1.1511925981221e-16
 126     2.65636560136e-16
 127    5.5832732510319e-17
 128    1.516959517025e-17
 129    -5.2596540226697e-16
 130    4.0647535200503e-17
 131    -6.5982938821952e-18
 132    -0.011825926067392
 133    1.4221953449556e-16
 134    -4.7430534173412e-16
 135    -0.0025224454392246
 136    1.5012101860517e-16
 137    0.0012806239281049
 138    -0.00056948617387788
 139    -3.1220458962188e-16
 140    -4.2355360815538e-18
 141    -2.9192635527572e-17
 142    6.1905363975322e-17
 143    -1.9495311403338e-15
 144    -1.5705791832666e-16
 145    -7.4176126841959e-17
 146     -0.01814285504411
 147    5.8545740877406e-16
 148    -8.4336784988171e-16
 149    -0.011978557782712
 150    1.7910816351775e-16
 151    0.0017700739101579
 152    0.00033125145093242
 153    -8.8928170656396e-17
 154    1.8892040050135e-16
 155    1.5006608220966e-16
 156    2.6040822231289e-16
 157    -1.9328095343139e-16
 158    -4.0257434648028e-16
 159    -1.1909114437198e-16
 160    -0.021483434407188
 161    3.2874765813852e-15
 162    -9.8045124891043e-16
 163    -0.018205105971623
 164    -4.9791071700974e-17
 165    -0.0018391254036462
 166    0.00033015835828534
 167    9.178297424454e-17
 168    -1.769333227816e-16
 169    -6.143863328416e-17
 170    -1.6817810350336e-15
 171    1.439831918217e-16
 172    5.5733780041964e-17
 173    0.0076216160473573
 174    -3.2720722751408e-16
 175    6.8683203751152e-16
 176    1.632235543055e-17
 177    -1.7430782538815e-16
 178    0.0072804790990837
 179    -6.0245469624432e-18
 180    5.6211538956744e-17
 181    1.2609480956909e-16
 182    7.6765717127385e-17
 183    0.0074368508008826
 184    1.091164555839e-16
 185    -1.4661700268654e-16
 186    1.6616320996689e-16
 187    2.2806884767957e-16
 188    0.0072832493788382
 189    -1.1990448902379e-16
 190    -2.5921489843436e-16
 191    1.4957866859532e-17
 192    1.8153461286934e-16
 193    -0.00041682322622108
 194    -7.0044268738874e-17
 195    1.0254876140463e-15
 196    1.7518888107598e-16
 197    5.5297437905421e-17
 198    -0.00058466570545066
 199    4.0275367962297e-16
 200    -4.6071450571445e-17
 201    -1.2238988251395e-16
 202    3.1094527938259e-17
 203    -0.00033384160966461
 204    2.7906870608541e-16
 205    7.9311934171173e-16
 206    -1.2605162383539e-16
 207    -5.4838413565024e-17
 208    -0.00042968596998364
 209    -2.5471696275058e-16
 210    9.3678476511609e-16
 211    -3.9364072405271e-17
 212    -2.2434497613173e-16
 213    0.0074359383939256
 214    5.2758907098494e-17
 215    2.1377917059426e-16
 216    -1.0553334998789e-16
 217    -1.303931102781e-16
 218    -0.00068370570512525
 Sym= A
 Ene=               1
 Spin= Alpha
 Occup=    1.00000
   1    2.4500784657914e-16
   2    2.274742425538e-16
   3    -3.8838653204839e-15
   4    3.4346008389325e-16
   5    3.6949571852766e-16
   6      0.15182108575411
   7    1.7215428543689e-15
   8    -3.4784556919055e-15
   9       0.1217114514187
  10    2.715990298894e-17
  11    -0.011252032418845
  12     0.024667362979728
  13    2.4157985632331e-16
  14    3.1704796154595e-16
  15    -5.6230372518015e-16
  16    -8.8687649386861e-16
  17    7.0118630906379e-15
  18    -2.1682135776024e-16
  19    3.1987675768726e-16
  20        0.316186825604
  21    7.1360107910269e-16
  22    -3.8110040339032e-15
  23      0.25846367271675
  24    3.3026020461144e-17
  25     0.011600285701683
  26    -0.0048332096125347
  27    -1.6964966731088e-16
  28    -1.248090183857e-16
  29    5.0368680506856e-16
  30    8.0664122208228e-16
  31    -2.4780780042492e-15
  32    -5.5299582469917e-17
  33    2.6635743341183e-16
  34     -0.16672487907918
  35    1.2958728421773e-15
  36    -7.5627188825836e-16
  37     -0.13596403003731
  38    -1.382777190541e-16
  39    -0.025164947851529
  40    -0.0096620839232995
  41    -2.965148892048e-16
  42    2.1675071810999e-16
  43    3.9249945891732e-16
  44    9.0676328546193e-16
  45    -4.4677641672493e-15
  46    -1.0968115774026e-16
  47    -8.4789714589695e-17
  48      0.15393594575934
  49    -1.1892076775955e-15
  50    1.733694346229e-15
  51      0.12336090606786
  52    -1.5168260775069e-16
  53     -0.02546850633962
  54    -0.0090017585252609
  55    -1.5966851316383e-17
  56    3.3426561288991e-17
  57    -3.787792666112e-17
  58    -3.907688118606e-17
  59    2.0853355850146e-15
  60    -2.7378291731831e-16
  61    1.925034720255e-16
  62     -0.32873291669383
  63    1.4644903330064e-15
  64    1.5204403824343e-15
  65     -0.25430931075397
  66    1.2914409788211e-16
  67     0.010154468388013
  68    -0.0041728423920374
  69    -1.6521149320729e-16
  70    1.7488564637344e-16
  71    -1.2900156631432e-16
  72    -4.3658332481906e-16
  73    1.7686243710962e-16
  74    3.1721883810975e-16
  75    -4.0230342298524e-16
  76     -0.16457291249813
  77    -3.418669803122e-15
  78    1.2658874121823e-15
  79     -0.13413932554142
  80    -3.9166908775886e-17
  81    -0.010548538076799
  82     0.024911301901041
  83    1.7251172428619e-16
  84    1.1984332213445e-16
  85    -2.9815603543035e-16
  86    -5.5807402889882e-16
  87    8.5130112996239e-16
  88    6.9016795626482e-17
  89    -1.7366353727904e-17
  90    -0.024110381831716
  91    -2.6636777066823e-16
  92    -2.8167871863784e-15
  93    0.0073010287758697
  94    1.2159078944362e-16
  95     0.018880362538306
  96    -0.0080702576580444
  97    2.2662943659532e-16
  98    7.6118672557463e-17
  99    3.6537610303077e-16
 100    3.8199923847188e-16
 101    -2.2057052794918e-15
 102    1.8240394735926e-16
 103    8.3780933817683e-17
 104     0.039667184924967
 105    1.400812619267e-15
 106    -1.1693836511127e-15
 107     0.042181541316824
 108    4.4533385052089e-17
 109    0.0022190145238001
 110    -0.0014157241826083
 111    5.2327933942087e-17
 112    -2.6824770442858e-17
 113    1.5172383289158e-16
 114    1.0209163675564e-16
 115    2.0231515831888e-16
 116    -6.912231627278e-17
 117    -1.1140156481931e-16
 118      0.01012541540183
 119    1.2588604425674e-15
 120    3.362453573003e-16
 121    0.0088607193909209
 122    1.8637863294418e-16
 123    -0.0042573831536404
 124    0.0011935775719833
 125    -2.8898363688393e-17
 126    1.8533251178381e-16
 127    8.2971879054061e-17
 128    1.3423204551978e-16
 129    -2.8191025701417e-15
 130    5.6788831437433e-17
 131    -9.9572953791462e-17
 132    -0.016831667556197
 133    6.5630380784104e-16
 134    -4.44083876609e-16
 135    -0.030959132080706
 136    5.6656668667177e-17
 137    -0.00093673039428612
 138    0.00048239604419364
 139    -2.9135650410495e-17
 140    -2.1246125739939e-16
 141    -3.0651397411151e-16
 142    -3.2531791341843e-16
 143    4.8052162414688e-15
 144    2.6892869732769e-17
 145    -1.0253144057854e-16
 146     0.010762837196156
 147    -2.0995256832743e-15
 148    -6.4325098447599e-16
 149    0.0093720825957463
 150    -7.8541513541454e-17
 151    -0.0037532349046741
 152    0.0021497477182332
 153    1.7329390511759e-16
 154    2.9814282105181e-17
 155    -1.4315417557483e-16
 156    8.3950199210991e-17
 157    -1.4256201452419e-15
 158    1.6754671924822e-16
 159    -3.3737844212249e-16
 160     0.040563787873305
 161    -3.0403806457861e-15
 162    1.9813265127398e-15
 163      0.04334905944635
 164    8.2707711172019e-17
 165    0.0026032606007255
 166    -0.00059631822035169
 167    -6.0417977618962e-17
 168    3.1661115209314e-16
 169    1.6650971951353e-16
 170    -6.1656953689218e-16
 171    7.5819824610617e-17
 172     2.76930768682e-17
 173     0.011819060279161
 174    -3.3794162296271e-16
 175    4.567628182386e-16
 176    3.4377802344592e-17
 177    -2.0941005864372e-16
 178    -0.0062078478978155
 179    3.0961128549424e-17
 180    -1.1638691634419e-17
 181    -7.0620376063128e-17
 182    -8.7922971894696e-17
 183    0.0057911666387456
 184    6.6959183749454e-17
 185    1.6142847356529e-15
 186    7.1148921439146e-18
 187    -1.0511020900472e-16
 188    -0.0061325537413286
 189    3.8498957222355e-16
 190    4.3996214656234e-16
 191    1.4684829331293e-16
 192    -2.0115950471183e-16
 193    0.0010683987093211
 194    -1.9078723417259e-16
 195    -1.5626577696206e-16
 196    -1.3806181762614e-16
 197    -1.4315844003931e-16
 198    0.00020963175311931
 199    -5.9050468239648e-17
 200    1.510571669044e-16
 201    5.6660886871185e-17
 202    7.0506527308216e-17
 203    -0.00091170303703694
 204    -2.4739352359498e-17
 205    -8.4561024533598e-16
 206    -4.8125677662339e-17
 207    -2.3409326669612e-16
 208    0.0010329781680764
 209    5.2034154505792e-17
 210    8.9923389513026e-16
 211    -4.2417878010595e-17
 212    -9.6950351501167e-17
 213    0.0057095146152525
 214    -7.0439678786994e-17
 215    7.049138095021e-16
 216    1.5064304629856e-16
 217    -6.8806506275829e-17
 218    0.00030912069320183
 Sym= A
 Ene=               2
 Spin= Alpha
 Occup=    1.00000
   1    1.2604262708006e-17
   2    1.9258876146716e-16
   3    1.3719061884346e-15
   4    -5.8231224438929e-17
   5    -3.4640642303373e-17
   6     -0.27746379843582
   7    3.8755761861808e-16
   8    3.1415781681964e-15
   9     -0.22270279460264
  10    1.9600816427652e-17
  11    -0.017935875332197
  12    0.0057140588188526
  13    -5.7772042196161e-16
  14    1.8297112873688e-16
  15    -5.1854111585964e-16
  16    -1.032813551837e-15
  17    -7.035309816177e-16
  18    -3.7074538103073e-16
  19    1.2643399660822e-16
  20    -0.0012481988904352
  21    3.6870353154199e-16
  22    1.6238625308182e-15
  23    -0.0010271146774521
  24    2.0845486403966e-17
  25     0.011644253568406
  26     0.027389723320684
  27    3.9427604223732e-16
  28    -3.8611168253436e-16
  29    3.9621631632076e-16
  30    6.6890059323213e-16