[Molden Format]
made by pyscf v[1.7.0]
[Atoms] (AU)
C   1   6   -12.96446266473323    -0.82707338726680     0.00000000000000
C   2   6   -13.30706186601933     1.79016470768469     0.00000000000000
C   3   6   -10.53821237370529    -1.85986082750791     0.00000000000000
C   4   6   -11.17974231281547     3.35290792495641     0.00000000000000
C   5   6    -8.36309906903577    -0.32142676666723     0.00000000000000
C   6   6    -8.75639895309194     2.31345854363535     0.00000000000000
C   7   6    -5.76644016962649    -1.44258163436937     0.00000000000000
C   8   6    -5.38961479565901    -4.07621596506373     0.00000000000000
C   9   6    -2.95570955650329    -5.08096852097147     0.00000000000000
C   10   6    -0.84112333678574    -3.51193184541908     0.00000000000000
C   11   6    -1.12013366216107    -0.86586903847088     0.00000000000000
C   12   6    -3.59823506116150     0.09549522854951     0.00000000000000
H   13   1   -15.20541388925464     2.59964695004217     0.00000000000000
H   14   1   -10.35981099482530    -3.91099447423649     0.00000000000000
H   15   1   -11.39993034415081     5.40555505541686     0.00000000000000
H   16   1    -7.15259053846937     3.60490683939976     0.00000000000000
H   17   1    -6.98895030904707    -5.37162179878855     0.00000000000000
H   18   1    -2.70195054245478    -7.12936097577027     0.00000000000000
H   19   1     1.02540315437362    -4.37814711554208     0.00000000000000
H   20   1    -3.84909629339259     2.13178234629333     0.00000000000000
H   21   1   -14.60015047089398    -2.08671407141706     0.00000000000000
H   22   1     0.42896783027627     0.31885348899786     0.00000000000000
[GTO]
1 0
 s    8 1.00
                  6665  0.00069158396281299
                  1000  0.0053257961529341
                   228   0.027060721042034
                 64.71    0.10165684614077
                 21.06     0.2745748236174
                 7.495    0.44829431892377
                 2.797    0.28490261071525
                0.5215   0.015194859206082
 s    8 1.00
                  6665  -0.00029326965268655
                  1000  -0.0023180354739745
                   228  -0.011499786038565
                 64.71  -0.046826727009787
                 21.06   -0.12846616875047
                 7.495   -0.30126627246289
                 2.797   -0.25563070233011
                0.5215      1.093793361012
 s    1 1.00
                0.1596                   1
 p    3 1.00
                 9.439   0.056979251590039
                 2.002    0.31320721150073
                0.5456    0.76037674173753
 p    1 1.00
                0.1517                   1
 d    1 1.00
                  0.55                   1

2 0
 s    8 1.00
                  6665  0.00069158396281299
                  1000  0.0053257961529341
                   228   0.027060721042034
                 64.71    0.10165684614077
                 21.06     0.2745748236174
                 7.495    0.44829431892377
                 2.797    0.28490261071525
                0.5215   0.015194859206082
 s    8 1.00
                  6665  -0.00029326965268655
                  1000  -0.0023180354739745
                   228  -0.011499786038565
                 64.71  -0.046826727009787
                 21.06   -0.12846616875047
                 7.495   -0.30126627246289
                 2.797   -0.25563070233011
                0.5215      1.093793361012
 s    1 1.00
                0.1596                   1
 p    3 1.00
                 9.439   0.056979251590039
                 2.002    0.31320721150073
                0.5456    0.76037674173753
 p    1 1.00
                0.1517                   1
 d    1 1.00
                  0.55                   1

3 0
 s    8 1.00
                  6665  0.00069158396281299
                  1000  0.0053257961529341
                   228   0.027060721042034
                 64.71    0.10165684614077
                 21.06     0.2745748236174
                 7.495    0.44829431892377
                 2.797    0.28490261071525
                0.5215   0.015194859206082
 s    8 1.00
                  6665  -0.00029326965268655
                  1000  -0.0023180354739745
                   228  -0.011499786038565
                 64.71  -0.046826727009787
                 21.06   -0.12846616875047
                 7.495   -0.30126627246289
                 2.797   -0.25563070233011
                0.5215      1.093793361012
 s    1 1.00
                0.1596                   1
 p    3 1.00
                 9.439   0.056979251590039
                 2.002    0.31320721150073
                0.5456    0.76037674173753
 p    1 1.00
                0.1517                   1
 d    1 1.00
                  0.55                   1

4 0
 s    8 1.00
                  6665  0.00069158396281299
                  1000  0.0053257961529341
                   228   0.027060721042034
                 64.71    0.10165684614077
                 21.06     0.2745748236174
                 7.495    0.44829431892377
                 2.797    0.28490261071525
                0.5215   0.015194859206082
 s    8 1.00
                  6665  -0.00029326965268655
                  1000  -0.0023180354739745
                   228  -0.011499786038565
                 64.71  -0.046826727009787
                 21.06   -0.12846616875047
                 7.495   -0.30126627246289
                 2.797   -0.25563070233011
                0.5215      1.093793361012
 s    1 1.00
                0.1596                   1
 p    3 1.00
                 9.439   0.056979251590039
                 2.002    0.31320721150073
                0.5456    0.76037674173753
 p    1 1.00
                0.1517                   1
 d    1 1.00
                  0.55                   1

5 0
 s    8 1.00
                  6665  0.00069158396281299
                  1000  0.0053257961529341
                   228   0.027060721042034
                 64.71    0.10165684614077
                 21.06     0.2745748236174
                 7.495    0.44829431892377
                 2.797    0.28490261071525
                0.5215   0.015194859206082
 s    8 1.00
                  6665  -0.00029326965268655
                  1000  -0.0023180354739745
                   228  -0.011499786038565
                 64.71  -0.046826727009787
                 21.06   -0.12846616875047
                 7.495   -0.30126627246289
                 2.797   -0.25563070233011
                0.5215      1.093793361012
 s    1 1.00
                0.1596                   1
 p    3 1.00
                 9.439   0.056979251590039
                 2.002    0.31320721150073
                0.5456    0.76037674173753
 p    1 1.00
                0.1517                   1
 d    1 1.00
                  0.55                   1

6 0
 s    8 1.00
                  6665  0.00069158396281299
                  1000  0.0053257961529341
                   228   0.027060721042034
                 64.71    0.10165684614077
                 21.06     0.2745748236174
                 7.495    0.44829431892377
                 2.797    0.28490261071525
                0.5215   0.015194859206082
 s    8 1.00
                  6665  -0.00029326965268655
                  1000  -0.0023180354739745
                   228  -0.011499786038565
                 64.71  -0.046826727009787
                 21.06   -0.12846616875047
                 7.495   -0.30126627246289
                 2.797   -0.25563070233011
                0.5215      1.093793361012
 s    1 1.00
                0.1596                   1
 p    3 1.00
                 9.439   0.056979251590039
                 2.002    0.31320721150073
                0.5456    0.76037674173753
 p    1 1.00
                0.1517                   1
 d    1 1.00
                  0.55                   1

7 0
 s    8 1.00
                  6665  0.00069158396281299
                  1000  0.0053257961529341
                   228   0.027060721042034
                 64.71    0.10165684614077
                 21.06     0.2745748236174
                 7.495    0.44829431892377
                 2.797    0.28490261071525
                0.5215   0.015194859206082
 s    8 1.00
                  6665  -0.00029326965268655
                  1000  -0.0023180354739745
                   228  -0.011499786038565
                 64.71  -0.046826727009787
                 21.06   -0.12846616875047
                 7.495   -0.30126627246289
                 2.797   -0.25563070233011
                0.5215      1.093793361012
 s    1 1.00
                0.1596                   1
 p    3 1.00
                 9.439   0.056979251590039
                 2.002    0.31320721150073
                0.5456    0.76037674173753
 p    1 1.00
                0.1517                   1
 d    1 1.00
                  0.55                   1

8 0
 s    8 1.00
                  6665  0.00069158396281299
                  1000  0.0053257961529341
                   228   0.027060721042034
                 64.71    0.10165684614077
                 21.06     0.2745748236174
                 7.495    0.44829431892377
                 2.797    0.28490261071525
                0.5215   0.015194859206082
 s    8 1.00
                  6665  -0.00029326965268655
                  1000  -0.0023180354739745
                   228  -0.011499786038565
                 64.71  -0.046826727009787
                 21.06   -0.12846616875047
                 7.495   -0.30126627246289
                 2.797   -0.25563070233011
                0.5215      1.093793361012
 s    1 1.00
                0.1596                   1
 p    3 1.00
                 9.439   0.056979251590039
                 2.002    0.31320721150073
                0.5456    0.76037674173753
 p    1 1.00
                0.1517                   1
 d    1 1.00
                  0.55                   1

9 0
 s    8 1.00
                  6665  0.00069158396281299
                  1000  0.0053257961529341
                   228   0.027060721042034
                 64.71    0.10165684614077
                 21.06     0.2745748236174
                 7.495    0.44829431892377
                 2.797    0.28490261071525
                0.5215   0.015194859206082
 s    8 1.00
                  6665  -0.00029326965268655
                  1000  -0.0023180354739745
                   228  -0.011499786038565
                 64.71  -0.046826727009787
                 21.06   -0.12846616875047
                 7.495   -0.30126627246289
                 2.797   -0.25563070233011
                0.5215      1.093793361012
 s    1 1.00
                0.1596                   1
 p    3 1.00
                 9.439   0.056979251590039
                 2.002    0.31320721150073
                0.5456    0.76037674173753
 p    1 1.00
                0.1517                   1
 d    1 1.00
                  0.55                   1

10 0
 s    8 1.00
                  6665  0.00069158396281299
                  1000  0.0053257961529341
                   228   0.027060721042034
                 64.71    0.10165684614077
                 21.06     0.2745748236174
                 7.495    0.44829431892377
                 2.797    0.28490261071525
                0.5215   0.015194859206082
 s    8 1.00
                  6665  -0.00029326965268655
                  1000  -0.0023180354739745
                   228  -0.011499786038565
                 64.71  -0.046826727009787
                 21.06   -0.12846616875047
                 7.495   -0.30126627246289
                 2.797   -0.25563070233011
                0.5215      1.093793361012
 s    1 1.00
                0.1596                   1
 p    3 1.00
                 9.439   0.056979251590039
                 2.002    0.31320721150073
                0.5456    0.76037674173753
 p    1 1.00
                0.1517                   1
 d    1 1.00
                  0.55                   1

11 0
 s    8 1.00
                  6665  0.00069158396281299
                  1000  0.0053257961529341
                   228   0.027060721042034
                 64.71    0.10165684614077
                 21.06     0.2745748236174
                 7.495    0.44829431892377
                 2.797    0.28490261071525
                0.5215   0.015194859206082
 s    8 1.00
                  6665  -0.00029326965268655
                  1000  -0.0023180354739745
                   228  -0.011499786038565
                 64.71  -0.046826727009787
                 21.06   -0.12846616875047
                 7.495   -0.30126627246289
                 2.797   -0.25563070233011
                0.5215      1.093793361012
 s    1 1.00
                0.1596                   1
 p    3 1.00
                 9.439   0.056979251590039
                 2.002    0.31320721150073
                0.5456    0.76037674173753
 p    1 1.00
                0.1517                   1
 d    1 1.00
                  0.55                   1

12 0
 s    8 1.00
                  6665  0.00069158396281299
                  1000  0.0053257961529341
                   228   0.027060721042034
                 64.71    0.10165684614077
                 21.06     0.2745748236174
                 7.495    0.44829431892377
                 2.797    0.28490261071525
                0.5215   0.015194859206082
 s    8 1.00
                  6665  -0.00029326965268655
                  1000  -0.0023180354739745
                   228  -0.011499786038565
                 64.71  -0.046826727009787
                 21.06   -0.12846616875047
                 7.495   -0.30126627246289
                 2.797   -0.25563070233011
                0.5215      1.093793361012
 s    1 1.00
                0.1596                   1
 p    3 1.00
                 9.439   0.056979251590039
                 2.002    0.31320721150073
                0.5456    0.76037674173753
 p    1 1.00
                0.1517                   1
 d    1 1.00
                  0.55                   1

13 0
 s    3 1.00
                 13.01   0.033498726389998
                 1.962    0.23480080117413
                0.4446     0.8136829578829
 s    1 1.00
                 0.122                   1
 p    1 1.00
                 0.727                   1

14 0
 s    3 1.00
                 13.01   0.033498726389998
                 1.962    0.23480080117413
                0.4446     0.8136829578829
 s    1 1.00
                 0.122                   1
 p    1 1.00
                 0.727                   1

15 0
 s    3 1.00
                 13.01   0.033498726389998
                 1.962    0.23480080117413
                0.4446     0.8136829578829
 s    1 1.00
                 0.122                   1
 p    1 1.00
                 0.727                   1

16 0
 s    3 1.00
                 13.01   0.033498726389998
                 1.962    0.23480080117413
                0.4446     0.8136829578829
 s    1 1.00
                 0.122                   1
 p    1 1.00
                 0.727                   1

17 0
 s    3 1.00
                 13.01   0.033498726389998
                 1.962    0.23480080117413
                0.4446     0.8136829578829
 s    1 1.00
                 0.122                   1
 p    1 1.00
                 0.727                   1

18 0
 s    3 1.00
                 13.01   0.033498726389998
                 1.962    0.23480080117413
                0.4446     0.8136829578829
 s    1 1.00
                 0.122                   1
 p    1 1.00
                 0.727                   1

19 0
 s    3 1.00
                 13.01   0.033498726389998
                 1.962    0.23480080117413
                0.4446     0.8136829578829
 s    1 1.00
                 0.122                   1
 p    1 1.00
                 0.727                   1

20 0
 s    3 1.00
                 13.01   0.033498726389998
                 1.962    0.23480080117413
                0.4446     0.8136829578829
 s    1 1.00
                 0.122                   1
 p    1 1.00
                 0.727                   1

21 0
 s    3 1.00
                 13.01   0.033498726389998
                 1.962    0.23480080117413
                0.4446     0.8136829578829
 s    1 1.00
                 0.122                   1
 p    1 1.00
                 0.727                   1

22 0
 s    3 1.00
                 13.01   0.033498726389998
                 1.962    0.23480080117413
                0.4446     0.8136829578829
 s    1 1.00
                 0.122                   1
 p    1 1.00
                 0.727                   1

[5d]
[7f]
[9g]

[MO]
 Sym= A
 Ene=               0
 Spin= Alpha
 Occup=    1.00000
   1    -3.1320229347956e-17
   2    1.0959266244044e-16
   3    1.1827115275679e-15
   4    5.6175596301529e-16
   5    4.8420989843044e-16
   6      0.21505051354044
   7    -3.2339908173301e-16
   8    9.2117400154821e-16
   9      0.12893476080181
  10    -1.3739766627261e-16
  11     0.012862355988076
  12     0.008863996396526
  13    4.9495878054191e-16
  14    1.7836722711776e-16
  15    -5.4556938600753e-17
  16    -3.2164762647497e-16
  17    -5.3992402694179e-16
  18    1.9350575989083e-16
  19    4.9202438260637e-16
  20      0.21096407239652
  21    -1.7624407455968e-15
  22    7.1958303711001e-16
  23      0.12366176488643
  24    -3.0214383392024e-16
  25     0.014644252735822
  26    -0.0062557002368171
  27    -1.0790592136739e-16
  28    -9.5750210476321e-17
  29    -5.394885890803e-17
  30    8.5154398033139e-17
  31    1.7132107840581e-16
  32    4.4695784291077e-16
  33    3.0756898266607e-16
  34      0.21846440628071
  35    7.6294974901395e-16
  36    -1.8293963643911e-16
  37      0.13201056053397
  38    -1.1140509769566e-16
  39    -0.0017593906661266
  40     0.015355848637833
  41    -6.5471445605498e-17
  42    1.4403364780473e-16
  43    -2.3687517613688e-16
  44    -1.4852267757156e-16
  45    2.571578693692e-15
  46    -2.2464256850244e-16
  47    1.6141472980066e-16
  48      0.21505934026281
  49    1.2472436795006e-15
  50    -9.3440046311677e-16
  51      0.12894690132528
  52    2.1657681843749e-17
  53    0.0024970910290655
  54     -0.01542882527073
  55    -3.4827952356079e-16
  56    -1.0364181034888e-16
  57    4.0376766325527e-16
  58    3.8938513514526e-16
  59    -6.4804151892246e-15
  60    -1.685333262018e-16
  61    3.4386523963333e-16
  62      0.21702083691229
  63    -1.9780109945569e-15
  64    5.2681214062662e-16
  65      0.12969195082483
  66    -5.5195546369995e-17
  67    -0.013531437889968
  68    0.0057602555904345
  69    -2.4384424154215e-16
  70    -1.3542470733607e-16
  71    8.6515894678906e-18
  72    1.5791991426447e-17
  73    -7.2033508834127e-16
  74    1.0115304797313e-16
  75    -6.2926244132538e-18
  76      0.21851057368218
  77    1.2292713892395e-15
  78    -1.1775864196348e-15
  79      0.13199012719178
  80    1.3121621676664e-16
  81    -0.012312874959168
  82    -0.009350410934473
  83    6.2895830311724e-17
  84    1.7621223444048e-16
  85    -5.0149732732081e-16
  86    -3.6198777296643e-16
  87    3.6477990950292e-15
  88    -8.4884144357911e-17
  89    1.6179593143996e-16
  90     0.015311288182848
  91    -3.0500129543533e-15
  92    3.4529253364364e-15
  93     -0.01050545651824
  94    -4.017771744545e-17
  95    -0.010622322590998
  96    0.0045668259491936
  97    1.4347628341771e-17
  98    -1.3777058767917e-16
  99    -1.9818573765396e-16
 100    -4.1413798096095e-16
 101    9.0085714833247e-16
 102    -5.4764078254675e-17
 103    -7.9288225502434e-17
 104    -0.017161559441296
 105    -6.6713922739927e-16
 106    1.4660468373741e-15
 107    -0.016885508583509
 108    -1.6422402466187e-16
 109    -0.00055008391326935
 110    0.0007414823383392
 111    -1.8446141695406e-16
 112    -2.5880955137491e-16
 113    -1.159011212703e-16
 114    2.0210183173627e-16
 115    7.6120059754314e-16
 116    2.9383223858282e-16
 117    2.5134543859747e-18
 118    -0.0014968571447121
 119    -1.7461249319387e-15
 120    1.1167581296098e-15
 121    -0.00058139386164219
 122    -1.177939287345e-17
 123    0.0019412025719663
 124    -0.00036038354584287
 125    -1.237324365762e-16
 126    2.5602233906657e-16
 127    4.561115680795e-17
 128    -5.7484724112893e-18
 129    -2.9428988171767e-16
 130    5.707909170827e-17
 131    2.0646539979664e-18
 132     0.012160505561134
 133    1.9838677114047e-16
 134    -3.5338321719423e-16
 135     0.014527071690704
 136    1.5346985620082e-16
 137    0.0001539430973161
 138    -8.0633429497959e-05
 139    -3.1451740223152e-16
 140    4.6305428747088e-18
 141    -8.7442718677112e-18
 142    8.3940731113111e-17
 143    -2.1550038086007e-15
 144    -1.4789064073171e-16
 145    -7.6264567908593e-17
 146    -0.0015103872195845
 147    5.171480524096e-16
 148    -6.5347344246794e-16
 149    -0.00059185635041446
 150    1.8980528159831e-16
 151    0.0015520710328312
 152    -0.0010957437357288
 153    -8.9801414690737e-17
 154    1.9534741453992e-16
 155    1.6832505887502e-16
 156    2.5764537202143e-16
 157    -2.4743698807778e-16
 158    -4.0416420765254e-16
 159    -1.0809244222112e-16
 160    -0.017231201301072
 161    3.2680210376019e-15
 162    -1.0839174114094e-15
 163    -0.017103905631214
 164    -4.2153448139133e-17
 165    -0.00092069676298099
 166    -0.00012329430761833
 167    8.8965909852122e-17
 168    -1.9445742994532e-16
 169    -8.1510619376379e-17
 170    -1.6629544647086e-15
 171    1.3805577560554e-16
 172    5.3362692117145e-17
 173     0.007190373979007
 174    -3.3880581643202e-16
 175    7.6581573331371e-16
 176    2.8217410567341e-18
 177    -1.5780438212623e-16
 178    0.0075278454799847
 179    5.7246475189349e-19
 180    7.4106241854847e-17
 181    1.4790143614801e-16
 182    7.9350341245817e-17
 183    0.0072384189372038
 184    1.029133941133e-16
 185    -2.831459234895e-16
 186    1.770702238429e-16
 187    2.4671361609851e-16
 188    0.0075327440511833
 189    -1.2321320501708e-16
 190    -3.4954617431428e-16
 191    1.7303093526063e-17
 192    1.9206135689099e-16
 193    -0.00027756646204648
 194    -8.4020995843167e-17
 195    1.0614763173307e-15
 196    1.8825198496264e-16
 197    5.6255578353112e-17
 198    -4.5546750597814e-06
 199    3.7526023701071e-16
 200    -4.959857595134e-17
 201    -1.3037191744609e-16
 202    1.8974127547574e-17
 203    0.00050671344295755
 204    3.0156981163498e-16
 205     8.39818556785e-16
 206    -1.3304406966496e-16
 207    -5.1754091861312e-17
 208    -0.00026498818754229
 209    -2.7284012207773e-16
 210    8.9186662497605e-16
 211    -3.3645394451895e-17
 212    -2.2846763801087e-16
 213    0.0072373424826951
 214    6.0776604667521e-17
 215     2.02332739413e-16
 216    -1.0929386675725e-16
 217    -1.3561222800033e-16
 218    -2.398939648722e-05
 Sym= A
 Ene=               1
 Spin= Alpha
 Occup=    1.00000
   1    2.4584708391164e-16
   2    2.3670880587705e-16
   3    -3.8810011601536e-15
   4    3.6389220491096e-16
   5    3.8726444637986e-16
   6      0.15930082451356
   7    1.7052463830842e-15
   8    -3.3899123164135e-15
   9      0.12629398456515
  10    2.6694750465723e-17
  11    -0.010775432995076
  12     0.024966984867283
  13    2.6475667166451e-16
  14    3.2482780203457e-16
  15    -5.6880921248605e-16
  16    -9.062403646051e-16
  17    6.967115017591e-15
  18    -2.1270774912374e-16
  19    3.3744934965858e-16
  20      0.32316933307274
  21    6.5259291155981e-16
  22    -3.7744169543926e-15
  23      0.26258485578977
  24    2.3534609721675e-17
  25      0.01212105902802
  26    -0.0050553898121449
  27    -1.8254336762185e-16
  28    -1.2600574197205e-16
  29    5.0540657699803e-16
  30    8.1441504651256e-16
  31    -2.5274687293534e-15
  32    -4.2638300798637e-17
  33    2.7493105588098e-16
  34     -0.15849114761974
  35    1.2163893018602e-15
  36    -7.9820588639818e-16
  37     -0.13106605564361
  38    -1.3922806772611e-16
  39    -0.025280509691938
  40    -0.009149608961736
  41    -3.0273660938783e-16
  42    2.2000207221898e-16
  43    3.8364324611093e-16
  44    8.9106491390267e-16
  45    -4.3486863377856e-15
  46    -1.2423443233671e-16
  47    -8.133678047495e-17
  48      0.16142517723071
  49    -1.121220287809e-15
  50    1.7159255869791e-15
  51      0.12796296195201
  52    -1.6043723005727e-16
  53    -0.025354513641274
  54    -0.0095539262427711
  55    -2.1351887059405e-17
  56    3.4422669958111e-17
  57    -2.3604687055529e-17
  58    -2.7852542388739e-17
  59    1.901706916656e-15
  60    -2.8872635363096e-16
  61    1.9604753582586e-16
  62     -0.32129942548878
  63    1.3868863107324e-15
  64    1.385527665082e-15
  65     -0.24981286453773
  66    1.2407989898356e-16
  67    0.0093753527752685
  68    -0.0038412169798801
  69    -1.730380150861e-16
  70    1.6776008592315e-16
  71    -1.3181251495066e-16
  72    -4.4090586544859e-16
  73    2.2852494061899e-16
  74    3.2894336373036e-16
  75    -4.0319917563085e-16
  76     -0.15633595731447
  77    -3.3734538189863e-15
  78    1.1318684226197e-15
  79     -0.12926004473554
  80    -3.961216210152e-17
  81    -0.011001448645886
  82      0.02464224499571
  83    1.7344921277534e-16
  84    1.2279996345414e-16
  85    -3.104282840872e-16
  86    -5.5774484976724e-16
  87    8.980949997781e-16
  88    6.4264373251446e-17
  89    -1.1438450634497e-17
  90    -0.035221924362869
  91    -3.2711984244815e-16
  92    -2.6053340503039e-15
  93    0.0030363639085877
  94    1.2466469901524e-16
  95     0.018092424309714
  96    -0.0077802304955469
  97    2.217991319361e-16
  98    7.9585595708444e-17
  99    3.6474516501013e-16
 100    3.8252771460943e-16
 101    -2.0674534217127e-15
 102    1.7463085083049e-16
 103    7.9398724523604e-17
 104     0.035362458514451
 105    1.4139409667009e-15
 106    -1.0646482676756e-15
 107     0.037818824415372
 108    3.7469799579303e-17
 109    0.0017947983098842
 110    -0.0016773462479366
 111    5.0829343017588e-17
 112    -3.9674798681118e-17
 113    1.4869890297008e-16
 114    1.056223201524e-16
 115    1.7502847881555e-16
 116    -5.4063406170778e-17
 117    -1.0285341288593e-16
 118    0.0043191973910224
 119    1.2204379744132e-15
 120    3.2389258255063e-16
 121    0.0046705517202225
 122    1.865826234292e-16
 123    -0.0041761764773753
 124    0.00067406187990908
 125    -3.4301034205052e-17
 126    1.9704117121278e-16
 127    8.7615403749181e-17
 128    1.3599891427803e-16
 129    -2.8725422535367e-15
 130    5.0338382708163e-17
 131    -1.0257899784334e-16
 132    -0.027342325302499
 133    6.4428634045187e-16
 134    -4.8441323981298e-16
 135    -0.035029528018388
 136    5.8893642943478e-17
 137    -0.00045558335908702
 138    0.00024330410647718
 139    -4.1334993273036e-17
 140    -2.1458092957212e-16
 141    -3.1087769125694e-16
 142    -3.2983828595196e-16
 143    4.7189584789354e-15
 144    1.8567825278439e-17
 145    -1.0357243851465e-16
 146    0.0043954969079175
 147    -2.0192208808811e-15
 148    -7.3736168843558e-16
 149    0.0045621120838091
 150    -7.4954836602909e-17
 151    -0.0032622846162788
 152    0.0024495483791433
 153    1.667992044777e-16
 154    3.2777252616292e-17
 155    -1.434124077432e-16
 156    9.3344713417183e-17
 157    -1.4021175839618e-15
 158    1.5531939005236e-16
 159    -3.3923191896156e-16
 160     0.035423364318997
 161    -2.851761275928e-15
 162    1.9545068605899e-15
 163     0.038328135829954
 164    7.7282283113879e-17
 165     0.002461884278588
 166    -0.00011055898923643
 167    -5.2502087520161e-17
 168    3.1359712280807e-16
 169    1.7326469428035e-16
 170    -6.7437534201642e-16
 171    8.4534991632476e-17
 172    2.7316538302551e-17
 173     0.012064954252086
 174    -3.3679207235204e-16
 175    4.4567502004945e-16
 176    4.0279345357094e-17
 177    -2.1757619774473e-16
 178    -0.0059476112262767
 179    2.4781663496829e-17
 180    -1.1924125296103e-17
 181    -7.4328243636707e-17
 182    -8.2283098684113e-17
 183    0.0060471494369729
 184    6.911621050429e-17
 185    1.6394008625698e-15
 186    7.7901325389397e-18
 187    -1.0197060342372e-16
 188    -0.0058732804535508
 189    3.7478320082221e-16
 190    4.6838459771344e-16
 191    1.4710988941266e-16
 192    -1.9980380179831e-16
 193    0.00083423625521892
 194    -1.8743523690191e-16
 195    -1.4345718144786e-16
 196    -1.3896267322011e-16
 197    -1.4230744846562e-16
 198    -2.5765894162684e-05
 199    -3.7329131440261e-17
 200    1.4044120867785e-16
 201    5.4884696046653e-17
 202    7.4413437346679e-17
 203    -0.0011515026423318
 204    -2.2500288644843e-17
 205    -8.2449985264207e-16
 206    -4.7521604486447e-17
 207    -2.3052200496679e-16
 208    0.00077195206120296
 209    4.9892596544303e-17
 210    9.4585616212324e-16
 211    -4.1591847326037e-17
 212    -1.0146296876176e-16
 213    0.0059654118355794
 214    -6.5309718508427e-17
 215    7.0457676885251e-16
 216    1.4784944225415e-16
 217    -6.5320375387544e-17
 218    1.780609535183e-05
 Sym= A
 Ene=               2
 Spin= Alpha
 Occup=    1.00000
   1    1.2573351745825e-17
   2    1.9249071538423e-16
   3    1.3726490862881e-15
   4    -5.8304135452885e-17
   5    -3.4715937338378e-17
   6     -0.27749607597444
   7    3.8785266139853e-16
   8    3.1410369031888e-15
   9     -0.22272284896936
  10    1.9505955550859e-17
  11    -0.017937943464061
  12    0.0057127043262592
  13    -5.777946851335e-16
  14    1.8295561932034e-16
  15    -5.1853643876464e-16
  16    -1.0327792637168e-15
  17    -7.0341388365384e-16
  18    -3.7078350813891e-16
  19    1.2638280271222e-16
  20    -0.0012785635172743
  21    3.6873863586089e-16
  22    1.6237448893545e-15
  23    -0.0010457249268488
  24    2.0872553627881e-17
  25     0.011641950087627
  26     0.027390698970777
  27    3.9433999932959e-16
  28    -3.86041033894e-16
  29    3.9617833803449e-16
  30    6.6883011742008e-16