[Molden Format]
made by pyscf v[1.7.0]
[Atoms] (AU)
C   1   6   -12.96446266473323    -0.82707338726680     0.00000000000000
C   2   6   -13.30706186601933     1.79016470768469     0.00000000000000
C   3   6   -10.53821237370529    -1.85986082750791     0.00000000000000
C   4   6   -11.17974231281547     3.35290792495641     0.00000000000000
C   5   6    -8.36309906903577    -0.32142676666723     0.00000000000000
C   6   6    -8.75639895309194     2.31345854363535     0.00000000000000
C   7   6    -5.76644016962649    -1.44258163436937     0.00000000000000
C   8   6    -5.38961479565901    -4.07621596506373     0.00000000000000
C   9   6    -2.95570955650329    -5.08096852097147     0.00000000000000
C   10   6    -0.84112333678574    -3.51193184541908     0.00000000000000
C   11   6    -1.12013366216107    -0.86586903847088     0.00000000000000
C   12   6    -3.59823506116150     0.09549522854951     0.00000000000000
H   13   1   -15.20541388925464     2.59964695004217     0.00000000000000
H   14   1   -10.35981099482530    -3.91099447423649     0.00000000000000
H   15   1   -11.39993034415081     5.40555505541686     0.00000000000000
H   16   1    -7.15259053846937     3.60490683939976     0.00000000000000
H   17   1    -6.98895030904707    -5.37162179878855     0.00000000000000
H   18   1    -2.70195054245478    -7.12936097577027     0.00000000000000
H   19   1     1.02540315437362    -4.37814711554208     0.00000000000000
H   20   1    -3.84909629339259     2.13178234629333     0.00000000000000
H   21   1   -14.60015047089398    -2.08671407141706     0.00000000000000
H   22   1     0.42896783027627     0.31885348899786     0.00000000000000
[GTO]
1 0
 s    8 1.00
                  6665  0.00069158396281299
                  1000  0.0053257961529341
                   228   0.027060721042034
                 64.71    0.10165684614077
                 21.06     0.2745748236174
                 7.495    0.44829431892377
                 2.797    0.28490261071525
                0.5215   0.015194859206082
 s    8 1.00
                  6665  -0.00029326965268655
                  1000  -0.0023180354739745
                   228  -0.011499786038565
                 64.71  -0.046826727009787
                 21.06   -0.12846616875047
                 7.495   -0.30126627246289
                 2.797   -0.25563070233011
                0.5215      1.093793361012
 s    1 1.00
                0.1596                   1
 p    3 1.00
                 9.439   0.056979251590039
                 2.002    0.31320721150073
                0.5456    0.76037674173753
 p    1 1.00
                0.1517                   1
 d    1 1.00
                  0.55                   1

2 0
 s    8 1.00
                  6665  0.00069158396281299
                  1000  0.0053257961529341
                   228   0.027060721042034
                 64.71    0.10165684614077
                 21.06     0.2745748236174
                 7.495    0.44829431892377
                 2.797    0.28490261071525
                0.5215   0.015194859206082
 s    8 1.00
                  6665  -0.00029326965268655
                  1000  -0.0023180354739745
                   228  -0.011499786038565
                 64.71  -0.046826727009787
                 21.06   -0.12846616875047
                 7.495   -0.30126627246289
                 2.797   -0.25563070233011
                0.5215      1.093793361012
 s    1 1.00
                0.1596                   1
 p    3 1.00
                 9.439   0.056979251590039
                 2.002    0.31320721150073
                0.5456    0.76037674173753
 p    1 1.00
                0.1517                   1
 d    1 1.00
                  0.55                   1

3 0
 s    8 1.00
                  6665  0.00069158396281299
                  1000  0.0053257961529341
                   228   0.027060721042034
                 64.71    0.10165684614077
                 21.06     0.2745748236174
                 7.495    0.44829431892377
                 2.797    0.28490261071525
                0.5215   0.015194859206082
 s    8 1.00
                  6665  -0.00029326965268655
                  1000  -0.0023180354739745
                   228  -0.011499786038565
                 64.71  -0.046826727009787
                 21.06   -0.12846616875047
                 7.495   -0.30126627246289
                 2.797   -0.25563070233011
                0.5215      1.093793361012
 s    1 1.00
                0.1596                   1
 p    3 1.00
                 9.439   0.056979251590039
                 2.002    0.31320721150073
                0.5456    0.76037674173753
 p    1 1.00
                0.1517                   1
 d    1 1.00
                  0.55                   1

4 0
 s    8 1.00
                  6665  0.00069158396281299
                  1000  0.0053257961529341
                   228   0.027060721042034
                 64.71    0.10165684614077
                 21.06     0.2745748236174
                 7.495    0.44829431892377
                 2.797    0.28490261071525
                0.5215   0.015194859206082
 s    8 1.00
                  6665  -0.00029326965268655
                  1000  -0.0023180354739745
                   228  -0.011499786038565
                 64.71  -0.046826727009787
                 21.06   -0.12846616875047
                 7.495   -0.30126627246289
                 2.797   -0.25563070233011
                0.5215      1.093793361012
 s    1 1.00
                0.1596                   1
 p    3 1.00
                 9.439   0.056979251590039
                 2.002    0.31320721150073
                0.5456    0.76037674173753
 p    1 1.00
                0.1517                   1
 d    1 1.00
                  0.55                   1

5 0
 s    8 1.00
                  6665  0.00069158396281299
                  1000  0.0053257961529341
                   228   0.027060721042034
                 64.71    0.10165684614077
                 21.06     0.2745748236174
                 7.495    0.44829431892377
                 2.797    0.28490261071525
                0.5215   0.015194859206082
 s    8 1.00
                  6665  -0.00029326965268655
                  1000  -0.0023180354739745
                   228  -0.011499786038565
                 64.71  -0.046826727009787
                 21.06   -0.12846616875047
                 7.495   -0.30126627246289
                 2.797   -0.25563070233011
                0.5215      1.093793361012
 s    1 1.00
                0.1596                   1
 p    3 1.00
                 9.439   0.056979251590039
                 2.002    0.31320721150073
                0.5456    0.76037674173753
 p    1 1.00
                0.1517                   1
 d    1 1.00
                  0.55                   1

6 0
 s    8 1.00
                  6665  0.00069158396281299
                  1000  0.0053257961529341
                   228   0.027060721042034
                 64.71    0.10165684614077
                 21.06     0.2745748236174
                 7.495    0.44829431892377
                 2.797    0.28490261071525
                0.5215   0.015194859206082
 s    8 1.00
                  6665  -0.00029326965268655
                  1000  -0.0023180354739745
                   228  -0.011499786038565
                 64.71  -0.046826727009787
                 21.06   -0.12846616875047
                 7.495   -0.30126627246289
                 2.797   -0.25563070233011
                0.5215      1.093793361012
 s    1 1.00
                0.1596                   1
 p    3 1.00
                 9.439   0.056979251590039
                 2.002    0.31320721150073
                0.5456    0.76037674173753
 p    1 1.00
                0.1517                   1
 d    1 1.00
                  0.55                   1

7 0
 s    8 1.00
                  6665  0.00069158396281299
                  1000  0.0053257961529341
                   228   0.027060721042034
                 64.71    0.10165684614077
                 21.06     0.2745748236174
                 7.495    0.44829431892377
                 2.797    0.28490261071525
                0.5215   0.015194859206082
 s    8 1.00
                  6665  -0.00029326965268655
                  1000  -0.0023180354739745
                   228  -0.011499786038565
                 64.71  -0.046826727009787
                 21.06   -0.12846616875047
                 7.495   -0.30126627246289
                 2.797   -0.25563070233011
                0.5215      1.093793361012
 s    1 1.00
                0.1596                   1
 p    3 1.00
                 9.439   0.056979251590039
                 2.002    0.31320721150073
                0.5456    0.76037674173753
 p    1 1.00
                0.1517                   1
 d    1 1.00
                  0.55                   1

8 0
 s    8 1.00
                  6665  0.00069158396281299
                  1000  0.0053257961529341
                   228   0.027060721042034
                 64.71    0.10165684614077
                 21.06     0.2745748236174
                 7.495    0.44829431892377
                 2.797    0.28490261071525
                0.5215   0.015194859206082
 s    8 1.00
                  6665  -0.00029326965268655
                  1000  -0.0023180354739745
                   228  -0.011499786038565
                 64.71  -0.046826727009787
                 21.06   -0.12846616875047
                 7.495   -0.30126627246289
                 2.797   -0.25563070233011
                0.5215      1.093793361012
 s    1 1.00
                0.1596                   1
 p    3 1.00
                 9.439   0.056979251590039
                 2.002    0.31320721150073
                0.5456    0.76037674173753
 p    1 1.00
                0.1517                   1
 d    1 1.00
                  0.55                   1

9 0
 s    8 1.00
                  6665  0.00069158396281299
                  1000  0.0053257961529341
                   228   0.027060721042034
                 64.71    0.10165684614077
                 21.06     0.2745748236174
                 7.495    0.44829431892377
                 2.797    0.28490261071525
                0.5215   0.015194859206082
 s    8 1.00
                  6665  -0.00029326965268655
                  1000  -0.0023180354739745
                   228  -0.011499786038565
                 64.71  -0.046826727009787
                 21.06   -0.12846616875047
                 7.495   -0.30126627246289
                 2.797   -0.25563070233011
                0.5215      1.093793361012
 s    1 1.00
                0.1596                   1
 p    3 1.00
                 9.439   0.056979251590039
                 2.002    0.31320721150073
                0.5456    0.76037674173753
 p    1 1.00
                0.1517                   1
 d    1 1.00
                  0.55                   1

10 0
 s    8 1.00
                  6665  0.00069158396281299
                  1000  0.0053257961529341
                   228   0.027060721042034
                 64.71    0.10165684614077
                 21.06     0.2745748236174
                 7.495    0.44829431892377
                 2.797    0.28490261071525
                0.5215   0.015194859206082
 s    8 1.00
                  6665  -0.00029326965268655
                  1000  -0.0023180354739745
                   228  -0.011499786038565
                 64.71  -0.046826727009787
                 21.06   -0.12846616875047
                 7.495   -0.30126627246289
                 2.797   -0.25563070233011
                0.5215      1.093793361012
 s    1 1.00
                0.1596                   1
 p    3 1.00
                 9.439   0.056979251590039
                 2.002    0.31320721150073
                0.5456    0.76037674173753
 p    1 1.00
                0.1517                   1
 d    1 1.00
                  0.55                   1

11 0
 s    8 1.00
                  6665  0.00069158396281299
                  1000  0.0053257961529341
                   228   0.027060721042034
                 64.71    0.10165684614077
                 21.06     0.2745748236174
                 7.495    0.44829431892377
                 2.797    0.28490261071525
                0.5215   0.015194859206082
 s    8 1.00
                  6665  -0.00029326965268655
                  1000  -0.0023180354739745
                   228  -0.011499786038565
                 64.71  -0.046826727009787
                 21.06   -0.12846616875047
                 7.495   -0.30126627246289
                 2.797   -0.25563070233011
                0.5215      1.093793361012
 s    1 1.00
                0.1596                   1
 p    3 1.00
                 9.439   0.056979251590039
                 2.002    0.31320721150073
                0.5456    0.76037674173753
 p    1 1.00
                0.1517                   1
 d    1 1.00
                  0.55                   1

12 0
 s    8 1.00
                  6665  0.00069158396281299
                  1000  0.0053257961529341
                   228   0.027060721042034
                 64.71    0.10165684614077
                 21.06     0.2745748236174
                 7.495    0.44829431892377
                 2.797    0.28490261071525
                0.5215   0.015194859206082
 s    8 1.00
                  6665  -0.00029326965268655
                  1000  -0.0023180354739745
                   228  -0.011499786038565
                 64.71  -0.046826727009787
                 21.06   -0.12846616875047
                 7.495   -0.30126627246289
                 2.797   -0.25563070233011
                0.5215      1.093793361012
 s    1 1.00
                0.1596                   1
 p    3 1.00
                 9.439   0.056979251590039
                 2.002    0.31320721150073
                0.5456    0.76037674173753
 p    1 1.00
                0.1517                   1
 d    1 1.00
                  0.55                   1

13 0
 s    3 1.00
                 13.01   0.033498726389998
                 1.962    0.23480080117413
                0.4446     0.8136829578829
 s    1 1.00
                 0.122                   1
 p    1 1.00
                 0.727                   1

14 0
 s    3 1.00
                 13.01   0.033498726389998
                 1.962    0.23480080117413
                0.4446     0.8136829578829
 s    1 1.00
                 0.122                   1
 p    1 1.00
                 0.727                   1

15 0
 s    3 1.00
                 13.01   0.033498726389998
                 1.962    0.23480080117413
                0.4446     0.8136829578829
 s    1 1.00
                 0.122                   1
 p    1 1.00
                 0.727                   1

16 0
 s    3 1.00
                 13.01   0.033498726389998
                 1.962    0.23480080117413
                0.4446     0.8136829578829
 s    1 1.00
                 0.122                   1
 p    1 1.00
                 0.727                   1

17 0
 s    3 1.00
                 13.01   0.033498726389998
                 1.962    0.23480080117413
                0.4446     0.8136829578829
 s    1 1.00
                 0.122                   1
 p    1 1.00
                 0.727                   1

18 0
 s    3 1.00
                 13.01   0.033498726389998
                 1.962    0.23480080117413
                0.4446     0.8136829578829
 s    1 1.00
                 0.122                   1
 p    1 1.00
                 0.727                   1

19 0
 s    3 1.00
                 13.01   0.033498726389998
                 1.962    0.23480080117413
                0.4446     0.8136829578829
 s    1 1.00
                 0.122                   1
 p    1 1.00
                 0.727                   1

20 0
 s    3 1.00
                 13.01   0.033498726389998
                 1.962    0.23480080117413
                0.4446     0.8136829578829
 s    1 1.00
                 0.122                   1
 p    1 1.00
                 0.727                   1

21 0
 s    3 1.00
                 13.01   0.033498726389998
                 1.962    0.23480080117413
                0.4446     0.8136829578829
 s    1 1.00
                 0.122                   1
 p    1 1.00
                 0.727                   1

22 0
 s    3 1.00
                 13.01   0.033498726389998
                 1.962    0.23480080117413
                0.4446     0.8136829578829
 s    1 1.00
                 0.122                   1
 p    1 1.00
                 0.727                   1

[5d]
[7f]
[9g]

[MO]
 Sym= A
 Ene=               0
 Spin= Alpha
 Occup=    1.00000
   1    -0.048015822930907
   2    -0.034160158537923
   3    -0.061517096708756
   4      0.20592228845623
   5     -0.29638561648523
   6    -3.9183035281467e-16
   7     0.057541924376774
   8     -0.10013552452134
   9    -9.0385794112815e-16
  10    0.00052531868227644
  11    3.9741818722328e-16
  12    -6.4431767525833e-17
  13     0.021263242713592
  14    -0.015430050138883
  15    -0.037499099427325
  16    -0.046005796217688
  17    -0.0050719742188267
  18       -0.118271239385
  19      0.29073847723792
  20    -2.2073098597443e-17
  21    -0.041563350082292
  22      0.10916481743167
  23    1.6250856949783e-15
  24     0.002625822581644
  25    -1.5803478088852e-17
  26    5.6637624573232e-17
  27     0.025342384179079
  28    -0.010709544100099
  29     0.030195797767209
  30       0.1140449634949
  31      0.10688075732116
  32     -0.23736508900117
  33    -0.013477373780025
  34    1.579167027778e-16
  35     -0.12089227619431
  36     0.016117587748476
  37    -1.61496592982e-16
  38    -0.0011891420983575
  39    5.9818878695398e-17
  40    -6.9001494120289e-18
  41      0.01387048318878
  42    -0.0088832835406806
  43    -0.037708577765861
  44    -0.024702212782107
  45    -0.026652294680318
  46    -0.021569920447594
  47    -0.061643002193986
  48    -2.999952277362e-16
  49    -0.0011316500466563
  50    -0.026639303029136
  51    -2.1321882219439e-16
  52    0.0012528811920448
  53    -2.5299149101374e-16
  54    -1.3665555240662e-16
  55      0.02198692786007
  56    -0.00058645321626865
  57     0.022341117587234
  58    -0.046826171364544
  59    -0.027892114401194
  60       0.1195198259325
  61    -0.014597699765422
  62    2.6065736422745e-16
  63     0.048984026624028
  64    -0.031492719880473
  65    4.4234362503046e-16
  66    -0.0013717963979034
  67    -1.8817230571691e-17
  68    1.3143265379564e-16
  69     0.008971438379031
  70    -0.0080089071623817
  71     0.044137080244877
  72    -0.0059939770567736
  73     0.027875677680834
  74     0.016722894705814
  75     0.057662663946718
  76    -2.6321016307119e-16
  77    -0.0034518030073765
  78      0.01529659570404
  79    -2.2164225043582e-16
  80    0.0024962421819225
  81    -8.3080849082805e-18
  82    4.0215830174001e-17
  83     0.008112971500635
  84    0.0012568370861547
  85    -0.045499086922768
  86     0.044126958844099
  87     0.041486837246834
  88    -0.091094530477778
  89    -0.012017346438497
  90    1.2631475478082e-16
  91    -0.028960645602084
  92     0.015748539084266
  93    -2.5684505284699e-16
  94    7.0296157316459e-05
  95    4.5597962092209e-17
  96    -3.9596734984421e-17
  97    -0.0025909502503947
  98    -0.0058368675471499
  99    -0.034025549810685
 100      -0.0448125942432
 101    -0.023757287311284
 102      0.02525295115504
 103      0.07009034120089
 104    -2.6667063217846e-17
 105    0.0016175085958163
 106     0.038081588647924
 107    -4.1942749634907e-17
 108    0.00093325114625453
 109    -4.7131010769812e-18
 110    5.8631766496076e-18
 111    -0.0011548412896323
 112    -0.0063812984011171
 113    0.00056535754986524
 114     0.028393867518618
 115     0.040445086848544
 116     0.061170027071854
 117     0.026290888727313
 118    3.9029316772774e-18
 119      0.01374161044999
 120     0.015449424512488
 121    -7.9793937179529e-18
 122    -2.7568651531269e-05
 123    5.6686021824413e-18
 124    -1.2558678616829e-18
 125    -0.00067173606118866
 126    0.0015429541205051
 127     0.062284661176067
 128    0.0094943421461928
 129    0.0082330655516698
 130    -0.021639671842962
 131    -0.088380923798538
 132    5.5509422358755e-17
 133    -0.0067027710704005
 134    -0.025383492546992
 135    7.1846371809488e-17
 136    0.00040318903484394
 137    4.5327150131927e-19
 138    3.3123804099192e-18
 139     0.005252892448348
 140    0.0065660070256822
 141     0.020154783599092
 142    -0.065871209594584
 143    -0.045776591291244
 144     0.027232597900989
 145      0.04931459696609
 146    2.007129327058e-17
 147    0.0094625614678923
 148     0.018467972135304
 149    -7.9931465628042e-18
 150    0.0023130003247078
 151    3.6351991670848e-18
 152    -4.9709351181238e-18
 153    -0.0020051083107524
 154    0.0019068537273407
 155    0.0076199099429407
 156    -0.023688317878338
 157    -0.033069055624067
 158    -0.005436064227707
 159     0.090624024140082
 160    -5.7805628145506e-17
 161     0.014162668640832
 162     0.039136225970866
 163    -3.744472187881e-17
 164    0.00086058663248204
 165    6.3529429369552e-19
 166    -2.5644661032451e-18
 167    -0.001762206396397
 168    0.0015810667049124
 169      0.18586066833409
 170     0.090406458877947
 171      0.01000363875385
 172    0.00091078858843288
 173    2.4825767027898e-18
 174     0.031581665757964
 175    -0.022945672278594
 176    -0.0063020290726479
 177    0.0072625466122818
 178    2.7248154061153e-19
 179    -0.090632183691942
 180    -0.054715782671001
 181    0.00034009549006019
 182    0.0036522268598153
 183    -2.6903040183019e-17
 184     0.037862649571137
 185     0.012793554768858
 186    -0.0028574392181117
 187    -0.00013842836259491
 188    -4.2115476716896e-18
 189    -0.086928483557911
 190    -0.022293847330927
 191    -0.0047143831294005
 192    -0.004018671802902
 193    -5.761519682261e-19
 194    -0.0010627843138427
 195    -0.0032019804960583
 196    0.00069597183372472
 197    0.00081756515313672
 198    -1.6054000634047e-20
 199     0.016836801882436
 200     0.002817041699004
 201    -0.0026836105216784
 202    -0.0011119589428011
 203    1.9945650307606e-18
 204     0.062932517905757
 205     0.019489919768538
 206    9.4645162830447e-05
 207    -0.0037583216630565
 208    1.2116572670766e-18
 209    -0.015217852235673
 210    -0.012909984819564
 211    0.0054233047256437
 212    -0.0075414801970233
 213    -3.6014868428901e-17
 214    0.0033449649839129
 215    0.0050962724532234
 216    0.0012811300590038
 217    0.0009874032810463
 218    1.2532386090038e-18
 Sym= A
 Ene=               1
 Spin= Alpha
 Occup=    1.00000
   1    -0.026234949028281
   2    -0.010475884891146
   3    -0.021183867943528
   4    -0.046765230007199
   5      0.14085346596478
   6    3.9146641761223e-16
   7    -0.019246097565226
   8     0.051203110222723
   9    -1.6052632373049e-16
  10    -0.00020143417651176
  11    -6.7805198618825e-17
  12    -5.7848006228329e-17
  13    -0.011152027421608
  14    -0.0071671761529571
  15     0.012800516021637
  16      0.12345025060797
  17      0.11253724531781
  18      -0.1375998738975
  19    -0.081332191806139
  20    2.589521096092e-16
  21    -0.031396372993067
  22    -0.019882247927056
  23    -9.9787781752314e-17
  24    -0.0023063683502679
  25    5.0263459073768e-18
  26    -1.7368663910985e-16
  27    0.0023051039001802
  28    -0.011418300370787
  29    -0.059247664621815
  30     -0.09900897486806
  31    -0.072821409154642
  32      0.04675884167399
  33     0.016611230286789
  34    -4.1039365790939e-16
  35    -0.0057295953410981
  36    -0.0029215614250652
  37    -2.1271037632922e-16
  38    0.0039518272078281
  39    1.2775544324248e-16
  40    5.7609002039817e-17
  41    -0.0043931648721737
  42    -0.0018197963952693
  43     0.020224138094307
  44    -0.062551135442651
  45    -0.062849592056123
  46     0.093634585998609
  47    -0.049447618909632
  48    -1.3776417662498e-16
  49      0.05153392040241
  50    -0.0017975268853184
  51    -2.1767170738157e-16
  52    -0.00042863754009369
  53    1.8352065322607e-17
  54    -6.8557823782532e-18
  55     0.010431212347451
  56    0.00021974367425993
  57    -0.023964393866271
  58    -0.023420698626613
  59    -0.053096937080052
  60     0.034409570838331
  61    -0.050338704455908
  62    1.7110790777517e-16
  63    -0.013628531158232
  64    -0.045069373049499
  65    4.8416934292174e-16
  66    0.0014013535288516
  67    -2.5872227295801e-17
  68    8.3754673300138e-17
  69    -0.005299136040013
  70    -0.0061848623058947
  71    0.0022836302990583
  72      0.04311125784719
  73     0.059540655949857
  74    -0.0066182260108835
  75      0.08860404045415
  76    1.0408501497177e-16
  77    0.0046687475114739
  78    0.0036388215701522
  79    -2.0786516052504e-16
  80    0.00020054610071141
  81    -1.9904380856445e-17
  82    8.1567418214749e-17
  83     0.006153682659968
  84    0.0019810224042732
  85     0.055954229121371
  86    -0.023414219770221
  87    0.0034776186501207
  88     -0.10830350317576
  89     -0.11690458503528
  90    3.2524814878144e-17
  91    -0.059793075442322
  92    -0.007054397916318
  93    -9.2194164174885e-17
  94    -0.0006149732650725
  95    3.0762852694205e-17
  96    -4.087318497768e-17
  97    -0.0065746627435561
  98    -0.0071279980546258
  99     0.055728726979316
 100     0.013319769808895
 101     0.035995038758568
 102     0.031587224178062
 103     0.095890704971109
 104    -2.4893340873976e-17
 105     0.016533028783008
 106     0.048183266184775
 107    -2.358660330896e-17
 108    -6.3067392777606e-05
 109    -3.1740743706701e-18
 110    -5.4700009633942e-18
 111    0.0010248415351243
 112    -0.0092051589800161
 113      0.03998022110337
 114     0.047650448044749
 115     0.043567665302238
 116     0.042085928660761
 117     0.051652715306056
 118    -6.7879438870343e-19
 119     0.019911274581747
 120     0.020081923094287
 121    -1.7430685708396e-17
 122    -0.0010236707320626
 123    5.5227393092156e-18
 124    -1.3080792579922e-18
 125    -0.0017946619105005
 126    0.00030791597772465
 127      -0.2453022187229
 128     0.022963722926554
 129    0.0091318644492713
 130    -0.056472751356006
 131    -0.038429754669911
 132    4.4741351373537e-17
 133    -0.0098511917550714
 134    -0.002459987928684
 135    5.4744663269829e-17
 136    -0.0016775451013087
 137    1.5387673357732e-18
 138    1.8320686763128e-18
 139    -4.8859329255673e-05
 140    0.0056917405154589
 141    -0.094997748658431
 142     0.099642738106861
 143     0.045582246342294
 144    -0.0010170383917044
 145      0.10070772043889
 146    2.4957879302266e-17
 147    -0.0072928286969594
 148     0.029070724386691
 149    1.2607360145267e-17
 150    -0.0038792202551932
 151    3.2688344774618e-18
 152    -4.5957542435417e-18
 153    -0.0029069764010838
 154    -0.0062588121185622
 155     -0.15386198904378
 156     0.073099737483319
 157     0.038773355628868
 158       0.1367462127194
 159      0.19449024614475
 160    -4.7708782106612e-17
 161     0.062612452584338
 162     0.076847885970602
 163    -4.9859461523763e-17
 164    -0.0031020537580648
 165    3.7791011948199e-18
 166    2.4693788335589e-18
 167    -0.0038407574936494
 168    -0.010468023153475
 169      0.15596173534848
 170     0.052643309793278
 171     0.011403067431649
 172    -0.0077851316223291
 173    1.8712416880881e-17
 174    -0.067454059152433
 175    -0.014336404662237
 176    0.00039994351447468
 177    -0.0079570102551686
 178    -7.1068429037311e-18
 179    -0.091935783259451
 180    -0.034614490696927
 181    0.0008495243573515
 182    0.0072848772067306
 183    1.3539443497422e-18
 184     0.071550987926402
 185     0.022106322127215
 186    -0.0049254694295362
 187    -0.0027921845327981
 188    1.0526600965866e-17
 189    -0.076078748931405
 190    -0.033299123348152
 191    -0.0027884822846683
 192    -0.0024203285201393
 193    -3.9981498188883e-19
 194    -0.0096766805361154
 195    -0.0038848202204959
 196    0.00041765345579633
 197    0.00022523788906167
 198    5.5206057629229e-19
 199    -0.018942695649823
 200    -0.011770171169364
 201    -0.0004717303371957
 202    -0.0015245590301364
 203    2.3907991472864e-18
 204      0.19830560628149
 205     0.060419172516455
 206    0.0037611127027638
 207     -0.01459174219112
 208    2.4138730497196e-18
 209    -0.055757719911347
 210    -0.027406787792289
 211    -0.0034722234791653
 212    -0.00022409322161359
 213    2.9945720917742e-17
 214      0.10129050545277
 215     0.017312815631792
 216    -0.009196074397572
 217    -0.0066063747893685
 218    5.7104693160684e-19
 Sym= A
 Ene=               2
 Spin= Alpha
 Occup=    1.00000
   1     0.070081911432718
   2    -0.0090567343360017
   3       -0.017828181226
   4    0.0025416620729321
   5     0.014598912741901
   6    9.2740983636517e-17
   7    0.0030211495375925
   8    -0.0046133128409846
   9    -2.8821690392199e-16
  10    0.00040045747723673
  11    -1.9307693785867e-17
  12    2.6710410954662e-18
  13    -0.0076603369093174
  14     -0.00307171515448
  15    -0.020833303380845
  16     0.016782905492499
  17     0.034347658714945
  18     0.041835041058898
  19    -0.0051197672411361
  20    -3.6386583084262e-16
  21     0.021240614590166
  22    -0.0092582085669407
  23    6.1207682058869e-16
  24    -1.8048868405139e-05
  25    2.4245445068799e-17
  26    2.0025455428418e-17
  27    0.0036969550705701
  28    0.00065418271253759
  29     0.013160299995265
  30    -0.050151994676984
  31     -0.00202969569022
  32    -0.068072604055021
  33      -0.1083585667754
  34    -7.4486672576364e-17
  35    -0.011087791860494
  36    -0.032995626107767
  37    6.943571102329e-17
  38    0.0024385525342129
  39    8.7929836625267e-17