[Molden Format]
made by pyscf v[1.7.0]
[Atoms] (AU)
C   1   6   -12.96446266473323    -0.82707338726680     0.00000000000000
C   2   6   -13.30706186601933     1.79016470768469     0.00000000000000
C   3   6   -10.53821237370529    -1.85986082750791     0.00000000000000
C   4   6   -11.17974231281547     3.35290792495641     0.00000000000000
C   5   6    -8.36309906903577    -0.32142676666723     0.00000000000000
C   6   6    -8.75639895309194     2.31345854363535     0.00000000000000
C   7   6    -5.76644016962649    -1.44258163436937     0.00000000000000
C   8   6    -5.38961479565901    -4.07621596506373     0.00000000000000
C   9   6    -2.95570955650329    -5.08096852097147     0.00000000000000
C   10   6    -0.84112333678574    -3.51193184541908     0.00000000000000
C   11   6    -1.12013366216107    -0.86586903847088     0.00000000000000
C   12   6    -3.59823506116150     0.09549522854951     0.00000000000000
H   13   1   -15.20541388925464     2.59964695004217     0.00000000000000
H   14   1   -10.35981099482530    -3.91099447423649     0.00000000000000
H   15   1   -11.39993034415081     5.40555505541686     0.00000000000000
H   16   1    -7.15259053846937     3.60490683939976     0.00000000000000
H   17   1    -6.98895030904707    -5.37162179878855     0.00000000000000
H   18   1    -2.70195054245478    -7.12936097577027     0.00000000000000
H   19   1     1.02540315437362    -4.37814711554208     0.00000000000000
H   20   1    -3.84909629339259     2.13178234629333     0.00000000000000
H   21   1   -14.60015047089398    -2.08671407141706     0.00000000000000
H   22   1     0.42896783027627     0.31885348899786     0.00000000000000
[GTO]
1 0
 s    8 1.00
                  6665  0.00069158396281299
                  1000  0.0053257961529341
                   228   0.027060721042034
                 64.71    0.10165684614077
                 21.06     0.2745748236174
                 7.495    0.44829431892377
                 2.797    0.28490261071525
                0.5215   0.015194859206082
 s    8 1.00
                  6665  -0.00029326965268655
                  1000  -0.0023180354739745
                   228  -0.011499786038565
                 64.71  -0.046826727009787
                 21.06   -0.12846616875047
                 7.495   -0.30126627246289
                 2.797   -0.25563070233011
                0.5215      1.093793361012
 s    1 1.00
                0.1596                   1
 p    3 1.00
                 9.439   0.056979251590039
                 2.002    0.31320721150073
                0.5456    0.76037674173753
 p    1 1.00
                0.1517                   1
 d    1 1.00
                  0.55                   1

2 0
 s    8 1.00
                  6665  0.00069158396281299
                  1000  0.0053257961529341
                   228   0.027060721042034
                 64.71    0.10165684614077
                 21.06     0.2745748236174
                 7.495    0.44829431892377
                 2.797    0.28490261071525
                0.5215   0.015194859206082
 s    8 1.00
                  6665  -0.00029326965268655
                  1000  -0.0023180354739745
                   228  -0.011499786038565
                 64.71  -0.046826727009787
                 21.06   -0.12846616875047
                 7.495   -0.30126627246289
                 2.797   -0.25563070233011
                0.5215      1.093793361012
 s    1 1.00
                0.1596                   1
 p    3 1.00
                 9.439   0.056979251590039
                 2.002    0.31320721150073
                0.5456    0.76037674173753
 p    1 1.00
                0.1517                   1
 d    1 1.00
                  0.55                   1

3 0
 s    8 1.00
                  6665  0.00069158396281299
                  1000  0.0053257961529341
                   228   0.027060721042034
                 64.71    0.10165684614077
                 21.06     0.2745748236174
                 7.495    0.44829431892377
                 2.797    0.28490261071525
                0.5215   0.015194859206082
 s    8 1.00
                  6665  -0.00029326965268655
                  1000  -0.0023180354739745
                   228  -0.011499786038565
                 64.71  -0.046826727009787
                 21.06   -0.12846616875047
                 7.495   -0.30126627246289
                 2.797   -0.25563070233011
                0.5215      1.093793361012
 s    1 1.00
                0.1596                   1
 p    3 1.00
                 9.439   0.056979251590039
                 2.002    0.31320721150073
                0.5456    0.76037674173753
 p    1 1.00
                0.1517                   1
 d    1 1.00
                  0.55                   1

4 0
 s    8 1.00
                  6665  0.00069158396281299
                  1000  0.0053257961529341
                   228   0.027060721042034
                 64.71    0.10165684614077
                 21.06     0.2745748236174
                 7.495    0.44829431892377
                 2.797    0.28490261071525
                0.5215   0.015194859206082
 s    8 1.00
                  6665  -0.00029326965268655
                  1000  -0.0023180354739745
                   228  -0.011499786038565
                 64.71  -0.046826727009787
                 21.06   -0.12846616875047
                 7.495   -0.30126627246289
                 2.797   -0.25563070233011
                0.5215      1.093793361012
 s    1 1.00
                0.1596                   1
 p    3 1.00
                 9.439   0.056979251590039
                 2.002    0.31320721150073
                0.5456    0.76037674173753
 p    1 1.00
                0.1517                   1
 d    1 1.00
                  0.55                   1

5 0
 s    8 1.00
                  6665  0.00069158396281299
                  1000  0.0053257961529341
                   228   0.027060721042034
                 64.71    0.10165684614077
                 21.06     0.2745748236174
                 7.495    0.44829431892377
                 2.797    0.28490261071525
                0.5215   0.015194859206082
 s    8 1.00
                  6665  -0.00029326965268655
                  1000  -0.0023180354739745
                   228  -0.011499786038565
                 64.71  -0.046826727009787
                 21.06   -0.12846616875047
                 7.495   -0.30126627246289
                 2.797   -0.25563070233011
                0.5215      1.093793361012
 s    1 1.00
                0.1596                   1
 p    3 1.00
                 9.439   0.056979251590039
                 2.002    0.31320721150073
                0.5456    0.76037674173753
 p    1 1.00
                0.1517                   1
 d    1 1.00
                  0.55                   1

6 0
 s    8 1.00
                  6665  0.00069158396281299
                  1000  0.0053257961529341
                   228   0.027060721042034
                 64.71    0.10165684614077
                 21.06     0.2745748236174
                 7.495    0.44829431892377
                 2.797    0.28490261071525
                0.5215   0.015194859206082
 s    8 1.00
                  6665  -0.00029326965268655
                  1000  -0.0023180354739745
                   228  -0.011499786038565
                 64.71  -0.046826727009787
                 21.06   -0.12846616875047
                 7.495   -0.30126627246289
                 2.797   -0.25563070233011
                0.5215      1.093793361012
 s    1 1.00
                0.1596                   1
 p    3 1.00
                 9.439   0.056979251590039
                 2.002    0.31320721150073
                0.5456    0.76037674173753
 p    1 1.00
                0.1517                   1
 d    1 1.00
                  0.55                   1

7 0
 s    8 1.00
                  6665  0.00069158396281299
                  1000  0.0053257961529341
                   228   0.027060721042034
                 64.71    0.10165684614077
                 21.06     0.2745748236174
                 7.495    0.44829431892377
                 2.797    0.28490261071525
                0.5215   0.015194859206082
 s    8 1.00
                  6665  -0.00029326965268655
                  1000  -0.0023180354739745
                   228  -0.011499786038565
                 64.71  -0.046826727009787
                 21.06   -0.12846616875047
                 7.495   -0.30126627246289
                 2.797   -0.25563070233011
                0.5215      1.093793361012
 s    1 1.00
                0.1596                   1
 p    3 1.00
                 9.439   0.056979251590039
                 2.002    0.31320721150073
                0.5456    0.76037674173753
 p    1 1.00
                0.1517                   1
 d    1 1.00
                  0.55                   1

8 0
 s    8 1.00
                  6665  0.00069158396281299
                  1000  0.0053257961529341
                   228   0.027060721042034
                 64.71    0.10165684614077
                 21.06     0.2745748236174
                 7.495    0.44829431892377
                 2.797    0.28490261071525
                0.5215   0.015194859206082
 s    8 1.00
                  6665  -0.00029326965268655
                  1000  -0.0023180354739745
                   228  -0.011499786038565
                 64.71  -0.046826727009787
                 21.06   -0.12846616875047
                 7.495   -0.30126627246289
                 2.797   -0.25563070233011
                0.5215      1.093793361012
 s    1 1.00
                0.1596                   1
 p    3 1.00
                 9.439   0.056979251590039
                 2.002    0.31320721150073
                0.5456    0.76037674173753
 p    1 1.00
                0.1517                   1
 d    1 1.00
                  0.55                   1

9 0
 s    8 1.00
                  6665  0.00069158396281299
                  1000  0.0053257961529341
                   228   0.027060721042034
                 64.71    0.10165684614077
                 21.06     0.2745748236174
                 7.495    0.44829431892377
                 2.797    0.28490261071525
                0.5215   0.015194859206082
 s    8 1.00
                  6665  -0.00029326965268655
                  1000  -0.0023180354739745
                   228  -0.011499786038565
                 64.71  -0.046826727009787
                 21.06   -0.12846616875047
                 7.495   -0.30126627246289
                 2.797   -0.25563070233011
                0.5215      1.093793361012
 s    1 1.00
                0.1596                   1
 p    3 1.00
                 9.439   0.056979251590039
                 2.002    0.31320721150073
                0.5456    0.76037674173753
 p    1 1.00
                0.1517                   1
 d    1 1.00
                  0.55                   1

10 0
 s    8 1.00
                  6665  0.00069158396281299
                  1000  0.0053257961529341
                   228   0.027060721042034
                 64.71    0.10165684614077
                 21.06     0.2745748236174
                 7.495    0.44829431892377
                 2.797    0.28490261071525
                0.5215   0.015194859206082
 s    8 1.00
                  6665  -0.00029326965268655
                  1000  -0.0023180354739745
                   228  -0.011499786038565
                 64.71  -0.046826727009787
                 21.06   -0.12846616875047
                 7.495   -0.30126627246289
                 2.797   -0.25563070233011
                0.5215      1.093793361012
 s    1 1.00
                0.1596                   1
 p    3 1.00
                 9.439   0.056979251590039
                 2.002    0.31320721150073
                0.5456    0.76037674173753
 p    1 1.00
                0.1517                   1
 d    1 1.00
                  0.55                   1

11 0
 s    8 1.00
                  6665  0.00069158396281299
                  1000  0.0053257961529341
                   228   0.027060721042034
                 64.71    0.10165684614077
                 21.06     0.2745748236174
                 7.495    0.44829431892377
                 2.797    0.28490261071525
                0.5215   0.015194859206082
 s    8 1.00
                  6665  -0.00029326965268655
                  1000  -0.0023180354739745
                   228  -0.011499786038565
                 64.71  -0.046826727009787
                 21.06   -0.12846616875047
                 7.495   -0.30126627246289
                 2.797   -0.25563070233011
                0.5215      1.093793361012
 s    1 1.00
                0.1596                   1
 p    3 1.00
                 9.439   0.056979251590039
                 2.002    0.31320721150073
                0.5456    0.76037674173753
 p    1 1.00
                0.1517                   1
 d    1 1.00
                  0.55                   1

12 0
 s    8 1.00
                  6665  0.00069158396281299
                  1000  0.0053257961529341
                   228   0.027060721042034
                 64.71    0.10165684614077
                 21.06     0.2745748236174
                 7.495    0.44829431892377
                 2.797    0.28490261071525
                0.5215   0.015194859206082
 s    8 1.00
                  6665  -0.00029326965268655
                  1000  -0.0023180354739745
                   228  -0.011499786038565
                 64.71  -0.046826727009787
                 21.06   -0.12846616875047
                 7.495   -0.30126627246289
                 2.797   -0.25563070233011
                0.5215      1.093793361012
 s    1 1.00
                0.1596                   1
 p    3 1.00
                 9.439   0.056979251590039
                 2.002    0.31320721150073
                0.5456    0.76037674173753
 p    1 1.00
                0.1517                   1
 d    1 1.00
                  0.55                   1

13 0
 s    3 1.00
                 13.01   0.033498726389998
                 1.962    0.23480080117413
                0.4446     0.8136829578829
 s    1 1.00
                 0.122                   1
 p    1 1.00
                 0.727                   1

14 0
 s    3 1.00
                 13.01   0.033498726389998
                 1.962    0.23480080117413
                0.4446     0.8136829578829
 s    1 1.00
                 0.122                   1
 p    1 1.00
                 0.727                   1

15 0
 s    3 1.00
                 13.01   0.033498726389998
                 1.962    0.23480080117413
                0.4446     0.8136829578829
 s    1 1.00
                 0.122                   1
 p    1 1.00
                 0.727                   1

16 0
 s    3 1.00
                 13.01   0.033498726389998
                 1.962    0.23480080117413
                0.4446     0.8136829578829
 s    1 1.00
                 0.122                   1
 p    1 1.00
                 0.727                   1

17 0
 s    3 1.00
                 13.01   0.033498726389998
                 1.962    0.23480080117413
                0.4446     0.8136829578829
 s    1 1.00
                 0.122                   1
 p    1 1.00
                 0.727                   1

18 0
 s    3 1.00
                 13.01   0.033498726389998
                 1.962    0.23480080117413
                0.4446     0.8136829578829
 s    1 1.00
                 0.122                   1
 p    1 1.00
                 0.727                   1

19 0
 s    3 1.00
                 13.01   0.033498726389998
                 1.962    0.23480080117413
                0.4446     0.8136829578829
 s    1 1.00
                 0.122                   1
 p    1 1.00
                 0.727                   1

20 0
 s    3 1.00
                 13.01   0.033498726389998
                 1.962    0.23480080117413
                0.4446     0.8136829578829
 s    1 1.00
                 0.122                   1
 p    1 1.00
                 0.727                   1

21 0
 s    3 1.00
                 13.01   0.033498726389998
                 1.962    0.23480080117413
                0.4446     0.8136829578829
 s    1 1.00
                 0.122                   1
 p    1 1.00
                 0.727                   1

22 0
 s    3 1.00
                 13.01   0.033498726389998
                 1.962    0.23480080117413
                0.4446     0.8136829578829
 s    1 1.00
                 0.122                   1
 p    1 1.00
                 0.727                   1

[5d]
[7f]
[9g]

[MO]
 Sym= A
 Ene=               0
 Spin= Alpha
 Occup=    1.00000
   1    2.403407165516e-17
   2    1.0785324036287e-16
   3    -5.252061881002e-16
   4    -5.1110813069698e-17
   5    1.030672428102e-16
   6    0.0016725539540702
   7    -2.886907573971e-16
   8    1.6970462164878e-15
   9    0.00076697750160426
  10    7.7140309783701e-17
  11    0.0016204457128122
  12    -0.0011621986426525
  13    1.3196436669099e-16
  14    3.9361904691468e-17
  15    -1.511386039753e-16
  16    -3.0204828978172e-16
  17    -1.2690796798159e-15
  18    -7.2947574043719e-17
  19    2.0857707669772e-17
  20    -0.012488684540315
  21    -6.8992301542989e-17
  22    6.4538978904138e-16
  23    -0.014944416403107
  24    4.4484293193674e-17
  25    0.00012955124386894
  26    -6.1450913552932e-05
  27    -2.3201856477417e-16
  28    6.7692743243207e-17
  29    6.1327642410897e-17
  30    5.8199582030568e-17
  31    -8.4462920134085e-16
  32    -1.6030088755014e-16
  33    -1.0810294716748e-16
  34     0.017518816595208
  35    -2.5611666142347e-15
  36    -4.7644203298161e-16
  37     0.017386468268476
  38    3.7634449166126e-17
  39    -0.00096119109996911
  40    -0.00010858892221606
  41    -1.2886351856324e-16
  42    -4.3294861478281e-18
  43    -5.126032226451e-17
  44    -3.9033980425018e-16
  45    8.5938997039671e-16
  46    -1.8197706534422e-16
  47    7.4506195191612e-18
  48    0.0015893719521235
  49    4.8412559822126e-16
  50    2.5626529970929e-16
  51    0.00071166498989465
  52    -2.62663784006e-16
  53    0.0019591127302712
  54    -0.00036819737236197
  55    1.8378988312052e-16
  56    1.8368538618374e-16
  57    7.0964126951923e-19
  58    -8.408150112724e-17
  59    8.2799806358307e-16
  60    -2.6578580727305e-16
  61    -2.6682492540284e-16
  62    -0.015930171376479
  63    6.0470663261096e-16
  64    -4.3220722252568e-15
  65     0.010188130227115
  66    -8.3623770992211e-17
  67     -0.01078344976997
  68    0.0046465747483891
  69    2.5533374010433e-17
  70    -5.8082080894344e-17
  71    -2.621779249593e-17
  72    -3.336593036704e-18
  73    2.208109060732e-15
  74    2.2239340650245e-16
  75    -3.627570757707e-17
  76     0.017530843768156
  77    -2.2637887494269e-16
  78    -2.7244626342527e-15
  79     0.017313697086251
  80    -1.3547181741327e-16
  81    -0.00057197210102843
  82    0.00077373108123899
  83    -3.6936802505467e-17
  84    -1.3976297407687e-16
  85    1.4983874607398e-16
  86    4.2694714622782e-16
  87    -2.442091474702e-15
  88    -6.5039019870361e-17
  89    3.4893627150709e-19
  90     -0.21976384589825
  91    1.7863599848969e-15
  92    2.336020458591e-15
  93     -0.13149563955127
  94    1.3059674995219e-16
  95    -0.013346361394964
  96    0.0058545221178511
  97    -1.6298124183828e-16
  98    2.4558571311645e-16
  99    1.5455493284803e-16
 100    3.8611041298963e-16
 101    3.4232270576837e-15
 102    -1.7413431759981e-16
 103    -4.8901395452784e-17
 104     -0.22113339995319
 105    1.1109124653789e-15
 106    1.2145607398563e-15
 107      -0.1334827278009
 108    -3.6562490176127e-17
 109    -0.012593804898604
 110    -0.0096762606781518
 111    1.3601456612578e-16
 112    -5.0911337249935e-17
 113    4.6552317497327e-17
 114    -5.8529736596864e-17
 115    -1.659873731903e-15
 116    9.0763120330295e-17
 117    2.9523073675115e-16
 118     -0.21709601677736
 119    1.1388229732179e-15
 120    -1.722138846178e-15
 121     -0.13025561442505
 122    3.2011459108218e-18
 123    0.0027368783241355
 124    -0.015284176111573
 125    -6.6790603175096e-17
 126    7.1697133630602e-17
 127    5.9676519251849e-17
 128    4.0452433726233e-18
 129    -1.0857144607498e-15
 130    -2.3551319387087e-16
 131    -1.1338108825194e-16
 132     -0.20909873769198
 133    -6.1890510712881e-16
 134    -2.5975247335014e-16
 135     -0.12304788895183
 136    -1.0640092087833e-16
 137     0.014369479765037
 138    -0.0055709999904229
 139    -2.0044240503068e-17
 140    -7.2318007661535e-17
 141    -1.2079617076013e-16
 142    -2.0094089825888e-16
 143    -5.7072328067996e-16
 144    -9.3395170561441e-17
 145    8.4239579696463e-17
 146     -0.20993486301492
 147    1.6675014099028e-15
 148    -1.8382164716748e-15
 149     -0.12723970629645
 150    -9.8795801883771e-17
 151     0.013012105961307
 152    0.0090703238952048
 153    -9.1279998069901e-17
 154    -1.4357364212721e-16
 155    -1.7871236950959e-16
 156    1.2475978267588e-17
 157     6.47242732325e-16
 158    9.0275259195979e-18
 159    4.6584472912543e-17
 160     -0.21670345080526
 161    2.109801009404e-15
 162    5.2723579179264e-16
 163     -0.13132864790774
 164    -1.0913020649848e-17
 165    -0.0012643596566343
 166     0.014925919610017
 167    1.8638666836425e-16
 168    8.6121868492199e-17
 169    2.452633938712e-16
 170    -2.4474485012467e-17
 171    1.3253561454207e-16
 172    -1.2222310350483e-16
 173    -0.00051856143070668
 174    3.7086598576034e-16
 175    -8.2603843922215e-16
 176    1.4727209316366e-16
 177    -1.0576252823218e-16
 178    0.00028666359625067
 179    -1.632446811432e-16
 180    -6.7011211819191e-17
 181    -2.0548856699638e-16
 182    1.070733873599e-16
 183    8.234080806892e-06
 184    4.3834675856659e-17
 185    1.1334657372513e-15
 186    -1.4340003975652e-16
 187    -1.4639463703192e-16
 188    0.00028656647249838
 189    -2.436031091968e-16
 190    1.0012511980569e-15
 191    7.3259061095776e-18
 192    -1.5249857658802e-16
 193    -0.007645554364013
 194    1.9174093403064e-16
 195    -8.590350152398e-16
 196    -2.5120687613967e-16
 197    -2.1871779872916e-17
 198    -0.0072941311860449
 199    2.3932432084008e-16
 200    -1.081442336092e-16
 201    6.2248517469325e-17
 202    5.2127707504334e-17
 203    -0.0070999251420915
 204    -2.235840792903e-16
 205    -3.6788656058397e-16
 206    1.7448294479838e-16
 207    1.589055298851e-16
 208    -0.0074457005244909
 209    1.706221350851e-16
 210    3.3537840351349e-16
 211    7.2336644428664e-17
 212    1.1507719398484e-16
 213    1.2603659021503e-05
 214    1.1156462342313e-16
 215    -3.1692511385097e-16
 216    5.8025554774219e-18
 217    2.8455968051118e-16
 218    -0.007893044195094
 Sym= A
 Ene=               1
 Spin= Alpha
 Occup=    1.00000
   1    2.4717769440908e-17
   2    -3.2060980614959e-17
   3    -2.0195110165604e-16
   4    1.575992180091e-16
   5    -1.0515175232191e-16
   6    -0.0047862515657965
   7    1.1488602605612e-15
   8    -1.4545846883035e-15
   9    -0.005254300310317
  10    8.1967932499495e-17
  11    -0.0033764135182676
  12    0.0025441833323349
  13    1.3356252813709e-16
  14    -1.2851007634055e-16
  15    1.3342664437042e-16
  16    3.016288868849e-16
  17    2.1053077417485e-15
  18    3.4922911342003e-17
  19    -1.0072839497605e-16
  20     0.027713591073802
  21    7.2637257911057e-17
  22    -1.1906712884118e-15
  23     0.035628187979468
  24    2.8461228128129e-17
  25    -0.0003974469280816
  26    0.00018873498173208
  27    -8.1824613786356e-17
  28    4.5663988714682e-17
  29    1.1175279236012e-16
  30    2.7342526309305e-16
  31    -3.0265874145931e-15
  32    1.6980148775738e-16
  33    1.9584796051146e-16
  34    -0.035600915264858
  35    5.4102025685123e-18
  36    -2.4985626621659e-15
  37    -0.038217451133089
  38     1.27884689466e-16
  39    0.0025539176488395
  40    -0.00014598592137307
  41    1.3757624699282e-16
  42    -3.6660477940005e-16
  43    2.4907237440146e-17
  44    2.7075050357484e-16
  45    3.665092797866e-16
  46    7.3688803478874e-17
  47    4.0165414314449e-17
  48    -0.0044121045343489
  49    5.694943705987e-16
  50    3.5294558460825e-16
  51    -0.004736564593671
  52    2.5618476084482e-17
  53    -0.004160921694825
  54    0.00067521279693643
  55    -1.2489310333207e-16
  56    -2.8812867775223e-16
  57    -1.2129297065049e-16
  58    -1.4147606473515e-16
  59    1.0500907332003e-15
  60    4.862501055164e-18
  61    1.6874576804496e-16
  62     0.036168923291158
  63    -2.8767281002037e-15
  64    1.0996356556381e-15
  65    -0.0020048455987284
  66    -8.3949508268703e-17
  67     0.018156211004383
  68    -0.0078468697419651
  69    2.2886465306552e-16
  70    6.3449664856721e-17
  71    -5.6011995403152e-17
  72    -2.3358359023752e-16
  73    -1.7223747999678e-15
  74    -9.8797174779068e-17
  75    2.5465307270254e-17
  76     -0.03563266594688
  77    3.4784609834577e-16
  78    9.5216523515994e-17
  79     -0.03845486053711
  80    1.3987038286036e-16
  81    0.0017854868235978
  82    -0.0017094281706778
  83    9.2833035863339e-17
  84    1.6926510619149e-16
  85    -1.8689427160089e-16
  86    -3.9079839361299e-16
  87    3.8278053062211e-15
  88    6.6308154269059e-17
  89    1.4339127363975e-16
  90      0.32149886245698
  91    -1.9920099873728e-15
  92    -1.1063875801593e-15
  93      0.25031194699689
  94    -1.0011966515077e-16
  95    0.0086381952409909
  96    -0.0046452331695033
  97    6.8754515982277e-17
  98    3.5593953064905e-17
  99    2.1981844775434e-16
 100    3.7330675287549e-16
 101    -2.9036161889703e-15
 102    5.7532759370443e-18
 103    1.609451316317e-16
 104      0.16452451924791
 105    8.4024560942512e-16
 106    -1.3333308477656e-15
 107       0.1356390079817
 108    6.0470627989714e-17
 109    -0.010452495799539
 110     0.024524484140314
 111    2.4033696856519e-17
 112    -1.8359048420596e-16
 113    -1.951998141145e-17
 114    -1.8124175785254e-16
 115    -1.8192650883097e-15
 116    7.6015800441718e-17
 117    -2.1481083695133e-16
 118     -0.15326996021107
 119    -1.1658041715822e-15
 120    8.1815148096786e-16
 121     -0.12159045690369
 122    1.2585399096454e-16
 123    -0.025920431512305
 124    -0.0092634958694151
 125    3.5819822112413e-16
 126    -1.5815597558371e-17
 127    1.0922768364108e-16
 128    4.3343459000877e-16
 129    -2.0210162219337e-15
 130    -1.6385056945138e-16
 131    1.8799063680757e-17
 132     -0.32214172098799
 133    -1.3134796641288e-15
 134    -2.453293878169e-15
 135       -0.261997449125
 136    9.9806486261147e-18
 137     0.011288329237205
 138    -0.0056535563614911
 139    1.1527228011189e-16
 140    7.0858254117394e-17
 141    -8.7737444000304e-17
 142    1.3046814524788e-17
 143    1.6654616498462e-15
 144    -1.5194242155015e-16
 145    4.0606520243967e-17
 146     -0.17137262296092
 147    1.5219948539401e-15
 148    -1.9151181793666e-15
 149     -0.13728060909823
 150    -6.9545645391081e-17
 151    -0.0094011726437108
 152     0.024230475503798
 153    -1.5148974137134e-17
 154    2.4400137602595e-18
 155    -9.6441747451735e-17
 156    -1.5583398977468e-17
 157    1.904412030524e-15
 158    -1.6076973769417e-16
 159    -4.5279183356896e-17
 160      0.14609006931661
 161    5.5638047018839e-16
 162    1.2683859671401e-16
 163      0.12036209022014
 164    -2.608700696885e-16
 165     -0.02622428412724
 166    -0.0088078592831213
 167    -1.2500479503688e-16
 168    3.3834769988804e-17
 169    2.1238830160723e-17
 170    5.4143083313532e-17
 171    -9.9834236094323e-17
 172    2.0989340119612e-16
 173    0.0011620247758233
 174    9.738670214671e-17
 175    -1.3753414671708e-15
 176    1.1899904866579e-16
 177    -1.077097219208e-16
 178    -0.00082461446463432
 179    3.3894490755381e-17
 180    -3.8461738644278e-16
 181    -2.1629986240412e-16
 182    -1.3556043626201e-16
 183    1.4371478345239e-05
 184    6.2167091846997e-17
 185    5.3134865648656e-16
 186    -8.9083638361531e-17
 187    -1.8831599110256e-16
 188    -0.00085892917421226
 189    4.8293545673051e-17
 190    5.5483100269738e-16
 191    -2.1906807561845e-16
 192    1.4263398824232e-16
 193    0.0061870581755988
 194    2.9623031793511e-16
 195    4.3571845118231e-16
 196    1.4565416209034e-16
 197    1.5469060054345e-16
 198    -0.0057270854136789
 199    4.8505529031689e-16
 200    1.3336429261977e-16
 201    6.5894512082106e-17
 202    1.8184153196455e-16
 203    -0.012022361285099
 204    -2.5758162329866e-16
 205    9.4636870231427e-17
 206    -1.6477776050962e-17
 207    -8.8524411242864e-17
 208    0.0054162107930282
 209    1.8104099817193e-16
 210    -1.251896141597e-16
 211    -2.2254756344088e-16
 212    3.7116727541739e-17
 213    3.7920270068783e-06
 214    -3.1212804104477e-16
 215    7.2001519514568e-17
 216    -6.3846247244865e-17
 217    -2.0243799056523e-16
 218    -0.0069666122609719
 Sym= A
 Ene=               2
 Spin= Alpha
 Occup=    1.00000
   1    4.3021597637893e-17
   2    1.1200326393168e-16
   3    -3.0562431788835e-15
   4    2.2444083016846e-17
   5    5.2247288110389e-17
   6    -0.0036947977579183
   7    2.7934160071377e-16
   8    -1.9882765676335e-15
   9    -0.0063385405062535
  10    2.9801045774186e-16
  11    -8.9152355584309e-05
  12    -4.0360414490867e-05
  13    2.1532054667295e-16
  14    -7.8280598606969e-17
  15    3.214291593439e-16
  16    9.9086129399072e-16
  17    3.2634090616829e-15
  18    3.3982184625572e-16
  19    -2.8105770980539e-16
  20    -0.0012675363418819
  21    -3.6164134122706e-16
  22    -7.2887936469178e-16
  23    -0.0016399051861648
  24    2.0214812552847e-16
  25    0.00012735195804809
  26    0.0002521124212088
  27    -3.0884839705535e-16
  28    -7.3325157232034e-17
  29    -1.078446792022e-17
  30    1.2151981847745e-17