[Molden Format]
made by pyscf v[2.0.1]
[Atoms] (AU)
H   1   1     2.30433203629464    -0.31218275577815     4.08180842906053
C   2   6     1.28973808001565    -0.17461069390981     2.28411196676179
C   3   6    -1.33698123312978    -0.06651835958469     2.26256908894175
H   4   1    -2.38936971190006    -0.11905274584760     4.04269109828204
C   5   6    -2.62634136792052     0.10809233432512    -0.02154287782004
H   6   1    -4.69332380296979     0.19294103731809    -0.03855041294113
C   7   6    -1.28954910740320     0.17479966652227    -2.28430093937425
H   8   1    -2.30433203629464     0.31218275577815    -4.08161945644808
C   9   6     1.33698123312978     0.06651835958469    -2.26256908894175
H   10   1     2.38880279406269     0.11867480062269    -4.04306904350695
C   11   6     2.62653034053298    -0.10809233432512     0.02154287782004
H   12   1     4.69332380296979    -0.19313000993055     0.03873938555358
[GTO]
1 0
 s    3 1.00
            3.42525091    0.15432897070298
            0.62391373    0.53532814243847
             0.1688554    0.44463454202535

2 0
 s    3 1.00
             71.616837    0.15432897000916
             13.045096    0.53532814003178
             3.5305122     0.4446345400264
 s    3 1.00
             2.9412494  -0.099967230075964
             0.6834831    0.39951283030359
             0.2222899    0.70011547053201
 p    3 1.00
             2.9412494    0.15591627210511
             0.6834831    0.60768372820466
             0.2222899    0.39195739529202

3 0
 s    3 1.00
             71.616837    0.15432897000916
             13.045096    0.53532814003178
             3.5305122     0.4446345400264
 s    3 1.00
             2.9412494  -0.099967230075964
             0.6834831    0.39951283030359
             0.2222899    0.70011547053201
 p    3 1.00
             2.9412494    0.15591627210511
             0.6834831    0.60768372820466
             0.2222899    0.39195739529202

4 0
 s    3 1.00
            3.42525091    0.15432897070298
            0.62391373    0.53532814243847
             0.1688554    0.44463454202535

5 0
 s    3 1.00
             71.616837    0.15432897000916
             13.045096    0.53532814003178
             3.5305122     0.4446345400264
 s    3 1.00
             2.9412494  -0.099967230075964
             0.6834831    0.39951283030359
             0.2222899    0.70011547053201
 p    3 1.00
             2.9412494    0.15591627210511
             0.6834831    0.60768372820466
             0.2222899    0.39195739529202

6 0
 s    3 1.00
            3.42525091    0.15432897070298
            0.62391373    0.53532814243847
             0.1688554    0.44463454202535

7 0
 s    3 1.00
             71.616837    0.15432897000916
             13.045096    0.53532814003178
             3.5305122     0.4446345400264
 s    3 1.00
             2.9412494  -0.099967230075964
             0.6834831    0.39951283030359
             0.2222899    0.70011547053201
 p    3 1.00
             2.9412494    0.15591627210511
             0.6834831    0.60768372820466
             0.2222899    0.39195739529202

8 0
 s    3 1.00
            3.42525091    0.15432897070298
            0.62391373    0.53532814243847
             0.1688554    0.44463454202535

9 0
 s    3 1.00
             71.616837    0.15432897000916
             13.045096    0.53532814003178
             3.5305122     0.4446345400264
 s    3 1.00
             2.9412494  -0.099967230075964
             0.6834831    0.39951283030359
             0.2222899    0.70011547053201
 p    3 1.00
             2.9412494    0.15591627210511
             0.6834831    0.60768372820466
             0.2222899    0.39195739529202

10 0
 s    3 1.00
            3.42525091    0.15432897070298
            0.62391373    0.53532814243847
             0.1688554    0.44463454202535

11 0
 s    3 1.00
             71.616837    0.15432897000916
             13.045096    0.53532814003178
             3.5305122     0.4446345400264
 s    3 1.00
             2.9412494  -0.099967230075964
             0.6834831    0.39951283030359
             0.2222899    0.70011547053201
 p    3 1.00
             2.9412494    0.15591627210511
             0.6834831    0.60768372820466
             0.2222899    0.39195739529202

12 0
 s    3 1.00
            3.42525091    0.15432897070298
            0.62391373    0.53532814243847
             0.1688554    0.44463454202535

[5d]
[7f]
[9g]

[MO]
 Sym= A
 Ene=               0
 Spin= Alpha
 Occup=    1.00000
   1    -0.0039595071765066
   2      0.60418408411114
   3     0.017625326773994
   4    0.00061361307424915
   5    -3.906070594004e-05
   6    0.0002601446585118
   7      0.36139849298549
   8     0.010273748619905
   9    -0.0028317533851038
  10    0.00017893962058403
  11    -0.0011926157103056
  12    -0.0023680745442564
  13     -0.19776528373459
  14    -0.0059613249276149
  15    0.00011834045267404
  16    0.0001768374991515
  17    -0.0033953704709756
  18    0.0012834160245635
  19     -0.53359980622505
  20     -0.01574423580229
  21    0.00057818806201409
  22    -2.8410916393004e-05
  23    9.5057990302557e-05
  24    0.0034776439073287
  25     -0.31774453707676
  26    -0.0095662584699132
  27    -0.0026522417644784
  28    0.00018219337631143
  29    -0.0013856031547998
  30     0.002069661737325
  31      0.25423707309951
  32    0.0072268560202037
  33    0.00033127823693725
  34    0.0001736227997708
  35    -0.0034992779592868
  36    -0.0016696601149447
 Sym= A
 Ene=               1
 Spin= Alpha
 Occup=    1.00000
   1    -0.00083936465624935
   2      0.12534302305742
   3    0.0032074113054975
   4    -0.0030587086852122
   5    1.3686982434756e-05
   6     0.002072632788906
   7     -0.38726788650729
   8    -0.011775286876983
   9    -0.0018116640436163
  10    0.00013839413983521
  11    -0.0012061182492599
  12    0.0025102863134468
  13     -0.44773042298031
  14    -0.013564010023686
  15    0.00014758596315792
  16    -8.6060473694992e-05
  17    0.0014978570062167
  18     0.002905302710821
  19    0.0072478842759992
  20    -0.00029342764177717
  21    -0.0033417627747803
  22    4.843512805681e-05
  23    0.0016395393351672
  24    -6.6764992748337e-05
  25      0.52971313885791
  26     0.015121303706191
  27    -0.0015717879019587
  28    0.00015082034146777
  29    -0.0016245978591379
  30    -0.0034840614108571
  31      0.58164548378547
  32     0.016538376319011
  33     0.000659587013596
  34    -0.00010921668932347
  35    0.0015416046997762
  36    -0.003821270597188
 Sym= A
 Ene=               2
 Spin= Alpha
 Occup=    1.00000
   1    -0.0024216120548765
   2      0.35197147494001
   3     0.007707323635342
   4    0.0012225602692941
   5    -9.9588130290992e-05
   6    0.0009299346883315
   7      0.45025408679645
   8     0.010462883801148
   9    -0.00028448076329912
  10    -7.4615590620763e-05
  11    0.0016091743251943
  12    -0.0030614417867278
  13      0.50358111307045
  14     0.012099959659092
  15    -0.0015488508997515
  16    6.3920624624822e-05
  17    -1.8144801799854e-05
  18    -0.0034115461283974
  19      0.44864716239514
  20     0.010442184784898
  21    -0.00022798433950271
  22    9.5614185238323e-05
  23    -0.0016162643581643
  24    -0.0030515401164133
  25      0.34673483932121
  26    0.0075281454670107
  27    0.0012386786815671
  28    -1.5789615977467e-06
  29    -0.0009158443002156
  30    -0.0023872080075039
  31      0.29051246100966
  32    0.0057640390343394
  33    0.0014084476989568
  34    -5.6863609685287e-05
  35    -8.4379151173544e-06
  36    -0.0020170503235663
 Sym= A
 Ene=               3
 Spin= Alpha
 Occup=    1.00000
   1    -0.0038142138663819
   2      0.55750613573853
   3     0.024469265952998
   4    -0.0016378157329629
   5    0.00014044965429944
   6    -0.0013838897351385
   7     -0.38358066870965
   8     -0.01664194312567
   9    -0.003202850642648
  10    0.00014912024045606
  11    -0.00034744487350456
  12    0.0026216884543339
  13     -0.18717185919649
  14    -0.0081238573126396
  15    -0.00068488197644257
  16    -0.00017189508727185
  17    0.0037342931232558
  18    0.0012791215236986
  19      0.56548947149727
  20     0.024568738603656
  21    0.0015761493705848
  22    -0.00013759456553414
  23    0.0013625467131281
  24    -0.0038639659884817
  25      -0.3648282059906
  26     -0.01595811520261
  27    0.0032399060986649
  28    -0.00015349809193615
  29    0.00040102675031741
  30    0.0024958208004207
  31     -0.19439630428441
  32    -0.008472190960243
  33    0.00072038506720722
  34    0.00016483541768333
  35    -0.0036325414415508
  36    0.0013297413156838
 Sym= A
 Ene=               4
 Spin= Alpha
 Occup=    1.00000
   1    0.00079103790407225
   2      -0.1155041268893
   3    -0.0050977420106275
   4    -0.0031507878227337
   5    6.8157168480307e-06
   6    0.0022727122667965
   7     -0.42788263872669
   8    -0.018575582706735
   9    0.0014454617848896
  10    -0.0001961035934714
  11     0.002570283883926
  12    0.0029228838509822
  13      0.53194417363292
  14      0.02312719991524
  15    0.0018356216969524
  16    -0.00014592020504248
  17    0.0013307911825862
  18    -0.0036351724690518
  19    -0.094228925609709
  20    -0.0040926751613604
  21    0.0031760372175169
  22    -1.322209774085e-05
  23    -0.0021699027364932
  24    0.00064292745457082
  25     -0.43881490786144
  26    -0.019276218167566
  27    -0.0013790038165368
  28    0.00019831289310008
  29    -0.0026586914466614
  30    0.0030033495421978
  31      0.55029170294893
  32     0.024045857713187
  33    -0.001940016226663
  34    0.00014807136961816
  35    -0.0012911277411006
  36    -0.003764597725488
 Sym= A
 Ene=               5
 Spin= Alpha
 Occup=    1.00000
   1    -0.0027930818493058
   2      0.39449910961209
   3     0.020618837515108
   4    -0.0012959271895318
   5    0.0001676586288667
   6    -0.0021519448799434
   7     -0.41338223723568
   8    -0.021323567469964
   9    -0.0012189817977549
  10    -6.9537689054436e-05
  11    0.0022326045964061
  12    0.0029221571438052
  13      0.41623464376761
  14      0.02152990556494
  15    0.0025789658492411
  16    -0.00010640469156081
  17    2.7395867765026e-05
  18    -0.002941074113309
  19     -0.41193896612681
  20    -0.021282592092407
  21    -0.0011800861177556
  22    0.00016890210273093
  23    -0.0022496997427887
  24    0.0029128037077908
  25      0.39620165719684
  26     0.020672164602516
  27    -0.0013355024455363
  28    -5.9481029809568e-05
  29    0.0021318966170705
  30    -0.0028047166639045
  31     -0.39555037897469
  32    -0.020530347635396
  33    0.0024727588929697
  34    -0.00010212005981646
  35    2.6643097799533e-05
  36    0.0027998581505848
 Sym= A
 Ene=               6
 Spin= Alpha
 Occup=    1.00000
   1     0.045814717521869
   2     -0.10473084615844
   3      0.26438061707736
   4    -0.030985446003598
   5    0.0041955727781072
   6     -0.05490881646918
   7     -0.10473579359337
   8      0.26438764854108
   9     0.032113534656453
  10    0.0015992634009985
  11    -0.054394030220524
  12     0.045826887340424
  13     -0.10474050258481
  14      0.26439602718103
  15     0.063124554754251
  16    -0.0025970727545672
  17    0.00053646535826561
  18     0.045820079561194
  19     -0.10473547763434
  20       0.2643902806572
  21     0.031008519788054
  22    -0.0042060108989239
  23      0.05489447426161
  24     0.045828098728191
  25     -0.10475021144509
  26      0.26442070289926
  27    -0.032131723068792
  28    -0.0015965396031092
  29     0.054384607191346
  30     0.045831923763687
  31     -0.10475005258804
  32      0.26441949735352
  33    -0.063131553458767
  34    0.0025989217151944
  35    -0.00052407700213814
  36     0.045832018708997
 Sym= A
 Ene=               7
 Spin= Alpha
 Occup=    1.00000
   1      0.01802212370634
   2    -0.024751693340781
   3     0.066748403171755
   4     -0.11519918652603
   5    0.0015164675306139
   6     0.059346077230437
   7     -0.13768616725867
   8      0.37126908771771
   9    -0.024927181263512
  10     0.003539071236655
  11    -0.047282517299753
  12      0.10024079501469
  13     -0.11292235952542
  14      0.30449306482699
  15     0.022156050173887
  16    -0.0053981966584876
  17     0.084058974444754
  18     0.082196069244912
  19     0.024767705964307
  20    -0.066781926973282
  21     -0.11519619549565
  22     0.001519804461622
  23     0.059341365660408
  24    -0.018032142884596
  25      0.13766364747546
  26     -0.37120885751648
  27    -0.024888948603897
  28    0.0035389447972459
  29    -0.047247075046158
  30     -0.10021932934892
  31      0.11290421818084
  32      -0.3044425943264
  33      0.02214910682086
  34    -0.0053937483770384
  35      0.08401165027058
  36    -0.082193772443787
 Sym= A
 Ene=               8
 Spin= Alpha
 Occup=    1.00000
   1     -0.10530931946928
   2       0.1446700066328
   3     -0.39011794963337
   4    -0.0048266700804152
   5    -0.0017558779145735
   6     0.036589674115119
   7     0.050880448856684
   8     -0.13720186859787
   9     -0.11125690924681
  10    0.0073893519180364
  11    -0.053456309216836
  12    -0.037039535934994
  13    -0.093763306343077
  14      0.25284103237509
  15     0.020164335293517
  16    0.0045699365790568
  17      -0.1007676903745
  18     0.068257628049197
  19     -0.14467854851319
  20       0.3901338472245
  21    -0.0047857863802143
  22    -0.0017695125036813
  23     0.036546041957431
  24      0.10534204252186
  25    -0.050902406004134
  26       0.1372582631539
  27     -0.11129733426365
  28    0.0073953961155451
  29    -0.053492226336046
  30      0.03706539639201
  31     0.093799414415869
  32      -0.2529304304364
  33     0.020164924877017
  34    0.0045669687892035
  35     -0.10078992285971
  36    -0.068295475835061
 Sym= A
 Ene=               9
 Spin= Alpha
 Occup=    1.00000
   1      0.17106458976584
   2     -0.11124108509414
   3      0.32806005423415
   4     0.085841585933162
   5    -0.0057800015455784
   6     0.042648690922508
   7     0.078345406394677
   8     -0.23103375496823
   9      0.17517235026459
  10    -0.0091606661181901
  11     0.038068582272682
  12     -0.12054059405074
  13     0.032860612597119
  14    -0.096897512399825
  15     0.025829855164649
  16      0.01092292258999
  17     -0.22378328815986
  18    -0.050540935252588
  19      -0.1112318305912
  20       0.3280268443963
  21    -0.085912108834426
  22    0.0057755118562269
  23    -0.042663133681656
  24      0.17110591444668
  25     0.078376101185422
  26     -0.23113107899586
  27     -0.17514622946656
  28     0.009175675494673
  29     -0.03806984715341
  30      -0.1205441832899
  31     0.032872150819787
  32    -0.096937475191472
  33    -0.025831918517505
  34    -0.010911865253332
  35      0.22380685414904
  36     -0.05055428746529
 Sym= A
 Ene=              10
 Spin= Alpha
 Occup=    1.00000
   1    -0.040463218937355
   2     0.026288884234101
   3    -0.077542402416732
   4      0.18915700795069
   5    -0.00082684120844159
   6     -0.12853657634777
   7      0.08319965130991
   8     -0.24536910397528
   9     -0.10782636342829
  10     0.011483605566766
  11     -0.13257185647929
  12     -0.12798438278761
  13     -0.10946420644307
  14      0.32282610391825
  15    -0.077545355475713
  16    0.0067865432022564
  17    -0.067925084256409
  18       0.1683602395111
  19     0.026244501422986
  20    -0.077391433805201
  21     -0.18917911312852
  22    0.0008334983104365
  23      0.12852189457491
  24    -0.040386161777432
  25     0.083193481268655
  26     -0.24534463634035
  27      0.10780349130194
  28    -0.011479246328913
  29      0.13258587891004
  30     -0.12800290624853
  31     -0.10945020751042
  32      0.32276989643911
  33     0.077573767175424
  34    -0.0067854954800304
  35     0.067886421193057
  36      0.16837403616427
 Sym= A
 Ene=              11
 Spin= Alpha
 Occup=    1.00000
   1      0.17578786645766
   2    -0.0094510956391352
   3     0.038968356271982
   4      0.11479994691888
   5    -0.015551931804573
   6      0.20322978919231
   7    -0.009474295393167
   8     0.039036466267463
   9     -0.11905391683551
  10    -0.0059355653389109
  11      0.20137638364409
  12      0.17588341539649
  13    -0.0094447333294237
  14     0.038945446597541
  15     -0.23374283825599
  16    0.0096014283381001
  17    -0.0019089151100624
  18      0.17579386364015
  19    -0.0094819494477956
  20     0.039059756964375
  21     -0.11482831716345
  22     0.015547100207834
  23     -0.20334766739451
  24      0.17591909083083
  25    -0.0094305561131646
  26     0.038902372508721
  27      0.11898730916409
  28    0.0059057366039542
  29     -0.20138248733272
  30      0.17580314369995
  31    -0.0094888079488103
  32     0.039088891803046
  33      0.23385110770515
  34    -0.0096323686828164
  35    0.0019791882178745
  36      0.17593450405887
 Sym= A
 Ene=              12
 Spin= Alpha
 Occup=    1.00000
   1      0.23265219158998
   2    -0.065046828377546
   3       0.2196106098088
   4     0.080384912048128
   5    -0.010914552354627
   6      0.14264077957261
   7      0.06504725991703
   8     -0.21960156574804
   9     0.083489924855189
  10    0.0041497120719853
  11     -0.14110606056977
  12      -0.2326002590873
  13    -0.065063589059506
  14      0.21966259948751
  15     -0.16384286171564
  16    0.0067253140297454
  17    -0.0014767794438427
  18      0.23258600933417
  19     0.065042868286892
  20     -0.21958742644487
  21     0.080323504337952
  22    -0.010910344139148
  23      0.14256017540114
  24     -0.23258670126165
  25    -0.065033064285217
  26      0.21955732907014
  27     0.083529346291286
  28    0.0041203311526482
  29     -0.14122712460418
  30      0.23266760038362
  31     0.065038270444592
  32      -0.2195610820468
  33     -0.16367613673489
  34    0.0067269628652513
  35    -0.0014296781103392
  36     -0.23242528008457
 Sym= A
 Ene=              13
 Spin= Alpha
 Occup=    1.00000
   1     -0.00013517871169
   2    -4.0544984995572e-05
   3    0.00011729371671216
   4      0.28899165077516
   5    -0.0030176971645133
   6     -0.16362137395511
   7    1.8390119445739e-05
   8    -9.2875064718157e-05
   9     -0.28544622493934
  10     0.020622227908211
  11      -0.1684421699289
  12     -0.00027422256713
  13    -2.3952726812504e-05
  14    6.3550497658302e-05
  15    -0.0034211656357501
  16    -0.017609218525007
  17      0.33166011965173
  18    6.7739076495954e-06
  19    3.0608366108652e-05
  20    -0.00011035257221145
  21      0.28900917810597
  22    -0.003028077037887
  23      -0.1634946255856
  24    7.8591070704088e-06
  25    -5.3441380036133e-08
  26    1.3899308297359e-05
  27     -0.28550998018509
  28     0.020648246502206
  29     -0.16848418841364
  30    0.00030312972797772
  31    2.6557027008912e-05
  32    -8.93295567483e-05
  33    -0.0034461603554812
  34    -0.017590458273868
  35      0.33177900972908
  36    -2.0410004244236e-05
 Sym= A
 Ene=              14
 Spin= Alpha
 Occup=    1.00000
   1      0.16178616196768
   2     0.014793252354386
   3     -0.04598977765748
   4      0.17514607360629
   5    -0.014718674420123
   6      0.14155361750296
   7     0.025969647666839
   8    -0.080758481393206
   9     -0.19428733453611
  10    -0.0088203102551247
  11      0.31225994261433
  12      0.28340268430431
  13     0.011143006491892
  14    -0.034641959212226
  15     -0.15682887477556
  16       0.0112723777203
  17    -0.091811054078104
  18      0.12169571354977
  19    -0.014811485642936
  20     0.046054897949607
  21      0.17511367513237
  22    -0.014711474566721
  23      0.14161200258327
  24     -0.16178642546096
  25    -0.025965686998464
  26     0.080742979172611
  27     -0.19425953150854
  28    -0.0087509210226095
  29      0.31215808873943
  30     -0.28331985735667
  31    -0.011133580753896
  32       0.0346148159848
  33     -0.15679932633941
  34      0.01128506096536
  35    -0.091690121271458
  36     -0.12168217751199
 Sym= A
 Ene=              15
 Spin= Alpha
 Occup=    1.00000
   1      0.23375537166769
   2        0.021437165656
   3     -0.06666605424061
   4     0.099043574170986
   5    -0.019631569507107
   6        0.291742035237
   7    -0.0021363684925458
   8    0.0066422893117274
   9    -0.070823404107507
  10    0.0069921040508968
  11    -0.076546356545691
  12    -0.023123626544339
  13     -0.02352900131868
  14     0.073159148798057
  15      0.33361031950922
  16      -0.0113932068201
  17      -0.0401762047932
  18     -0.25699795825275
  19    -0.021438911378972
  20     0.066678520867915
  21     0.099218428060078
  22    -0.019633532786708
  23      0.29175318013168
  24     -0.23384299009809
  25    0.0021371506352356
  26    -0.0066526573811352
  27    -0.071026803121181
  28    0.0069971799985072
  29    -0.076571558434682
  30     0.023043902658028
  31     0.023527934536774
  32    -0.073147763996568
  33      0.33378044634118
  34    -0.011437878935975
  35    -0.040124832903264
  36      0.25715487035307
 Sym= A
 Ene=              16
 Spin= Alpha
 Occup=    1.00000
   1    3.2519405951696e-05
   2    -5.5563026305586e-06
   3    2.3226922489891e-05
   4     0.013548026712455
   5      0.33306597951432
   6     0.017859887308585
   7    -7.7508880696043e-07
   8    2.7185221044523e-06
   9     0.013568135439661
  10      0.33307262147034
  11     0.017790427733599
  12    -4.8424562166888e-05
  13    -1.3336360825001e-06
  14    7.8295182611038e-06
  15     0.013487835260755
  16      0.33307608652801
  17      0.01786631065064
  18    4.7337777217472e-05
  19    -5.7412259920081e-07
  20    5.8585099961936e-06
  21     0.013594519649668
  22      0.33307206534606
  23     0.017767676061924
  24    1.9479329271822e-05
  25    -5.8712209165313e-06
  26    2.0182322151788e-05
  27      0.01357155880073
  28      0.33310683023565
  29     0.017837709688847
  30    -3.9507079357007e-05
  31    2.5691675193156e-06
  32    -8.6253216959338e-06
  33     0.013562606883431
  34      0.33311931576528
  35     0.017758660635861
  36    -5.0803938285399e-06
 Sym= A
 Ene=              17
 Spin= Alpha
 Occup=    1.00000
   1       0.2809779896305
   2    0.0068311092984699
   3    -0.013145381321697
   4     0.026556710603281
   5    -0.016534065239173
   6      0.28768502136112
   7    -0.0056603380161723
   8     0.010853291100154
   9    -0.068045957811083
  10     0.018483275602941
  11     -0.29464285405108
  12     -0.23349644500563
  13    -0.0011566792643757
  14    0.0022210454229491
  15     0.041093095449841
  16    -0.019214499482058
  17      0.32715173710457
  18    -0.047378043577368
  19    0.0068202902914382
  20    -0.013118756907416
  21    -0.026374324966003
  22      0.01643180193274
  23     -0.28765640353878
  24      0.28086153525487
  25    -0.0056828480939771
  26     0.010945682983617
  27     0.067894599042791
  28    -0.018538794119386
  29      0.29464123922715
  30     -0.23355796402489
  31    -0.0011555569109757
  32    0.0022320336195233
  33    -0.041096011620716
  34     0.019102565896419
  35     -0.32705322777333
  36    -0.047385300401579
 Sym= A
 Ene=              18
 Spin= Alpha
 Occup=    1.00000
   1      0.10755934162276
   2    0.0026058188477593
   3    -0.0050078282733255
   4      0.31898542037453
   5    -0.0095256913795937
   6    -0.064482288217194
   7    0.0046157980496695
   8    -0.0089136146113027
   9     -0.31188685026721
  10     0.011501412298871
  11     0.022965998026816
  12      0.18950932927106
  13    -0.0072319866831363
  14     0.013934229262855
  15      0.27954687309325
  16    -0.008626084836971
  17    -0.049855336573101
  18      -0.2971100314864
  19    0.0026063855793684
  20    -0.0050023386530738
  21     -0.31892699040451
  22    0.0095789570121072
  23     0.064659289207889
  24      0.10739710573796
  25    0.0046088162216925
  26    -0.0088736346885792
  27      0.31186641565725
  28    -0.011478580571526
  29    -0.023073764711502
  30      0.18957679028381
  31    -0.0072078426958477
  32     0.013852104043533
  33     -0.27935262014028
  34    0.0087144323827293
  35     0.049839919101153
  36     -0.29695415883089
 Sym= A
 Ene=              19
 Spin= Alpha
 Occup=    1.00000
   1    -8.9489867543194e-06
   2    1.531049961099e-06
   3    -5.8735529039118e-06
   4    -0.00079472709399024
   5    -0.019083615274543
   6    -0.001012990282869
   7    -3.6391333479457e-06
   8    1.5874498037841e-05
   9     0.018294969159904
  10      0.44947252978729
  11     0.024058502620975
  12    -1.2473121261371e-05
  13    2.7018295426036e-06
  14    -9.2048109090854e-06
  15     0.019011573673995
  16      0.46850008214783
  17     0.025074758519153
  18    2.2166311583699e-05
  19    -1.5617035254054e-06
  20    6.5907468156985e-06
  21    0.00080025392034862
  22     0.019024905859223
  23     0.001010559750215
  24    -7.1762159149344e-06
  25    -1.8443244025822e-06
  26    6.7698110921977e-06
  27    -0.018361810109872
  28     -0.44937194266178
  29    -0.023995722967808
  30    -2.4607875011274e-05
  31    -2.6048981523116e-06
  32    1.2138657243002e-05
  33    -0.019065178682457
  34     -0.46844710165704
  35    -0.025040060258337
  36    1.788255510792e-05
 Sym= A
 Ene=              20
 Spin= Alpha
 Occup=    1.00000
   1    -1.2668196487672e-05
   2    9.3774203480937e-07
   3    -6.2215852335769e-06
   4    -0.021602398937792
   5     -0.52994855007611
   6    -0.028362802808469
   7    2.8626015823022e-06
   8    -1.3308806225197e-05
   9    -0.011431361315463
  10     -0.28143221502916
  11    -0.015054629698426
  12    -2.8233188340081e-06
  13    -6.3455154520759e-07
  14    4.6038135465454e-06
  15     0.010082873922906
  16      0.24841762919548
  17      0.01328293823115
  18    1.6364038460199e-05
  19    -6.8986155059001e-06
  20    3.0145461142276e-05
  21       0.0215982062817
  22      0.52997153220594
  23     0.028352172959423
  24    -2.3123932481192e-05
  25    7.6566158565846e-07
  26    -1.0144819901088e-06
  27     0.011476225756943
  28      0.28151707744753
  29     0.015020532299677
  30    1.0201181484141e-05
  31    6.6544518694825e-07
  32    -3.0293860101171e-06
  33     -0.01011217702061
  34     -0.24853060613455
  35    -0.013270919152257
  36    6.4573084811046e-06
 Sym= A
 Ene=              21
 Spin= Alpha
 Occup=    0.00000
   1    -1.5106425830332e-05
   2    -5.339332197712e-06
   3    2.8101471403899e-05
   4     0.026313127165796
   5      0.64598772260131
   6     0.034567158166264
   7    7.2452467215688e-06
   8    -3.8395500537801e-05
   9    -0.017428799276884
  10     -0.42851778574572
  11    -0.022932662613187
  12    2.0361366160748e-05
  13    4.0684306253882e-06
  14    -1.9492424520636e-05
  15    -0.0088305355794389
  16     -0.21734368391557
  17    -0.011595005988433
  18    2.2438287782617e-05
  19    -1.1510021603507e-05
  20    6.2847999927217e-05
  21     0.026318694128134
  22       0.6459866224427
  23     0.034556059969777
  24    -1.1327717261324e-05
  25    4.3413905475623e-06
  26    -2.0341935301618e-05
  27    -0.017462808844404
  28     -0.42860509841161
  29    -0.022880501037013
  30    1.7096068046359e-05
  31    3.1596116699161e-06
  32    -1.4894191390288e-05
  33    -0.0088454615361617
  34     -0.21743953299796
  35    -0.011627484376883
  36    7.2459464568696e-06
 Sym= A
 Ene=              22
 Spin= Alpha
 Occup=    0.00000
   1    1.429362694254e-05
   2    -3.2257898372709e-07
   3    2.1193585390644e-07
   4    -0.0049934064169723
   5     -0.12198521939188
   6    -0.0065231114556386
   7    5.836951442897e-06
   8    -3.2470772051404e-05
   9     -0.02028093900828
  10     -0.49852695527456
  11    -0.026683006313406
  12    7.1019133511178e-06
  13    -1.1480963263368e-06
  14    4.8792027558811e-06
  15     0.025198737025676
  16        0.620439086011
  17      0.03320921083498
  18    -1.2241957936802e-05
  19    4.3004712996714e-06
  20    -2.2365187854039e-05
  21    -0.0049786914907588
  22     -0.12186961397517
  23    -0.0065155119630042
  24    8.0357707580605e-06
  25    -2.2602702160785e-06
  26    1.0384807208165e-05
  27    -0.020361454882269
  28     -0.49846110563105
  29    -0.026621308405455
  30    1.0868894256952e-05
  31    2.4190756960381e-06
  32    -1.2755328728545e-05
  33     0.025248517411323
  34      0.62036956307564
  35     0.033155240821497
  36    2.9565661225497e-05
 Sym= A
 Ene=              23
 Spin= Alpha
 Occup=    0.00000
   1    0.00010538877611586
   2    2.1337483570093e-05
   3    -0.00012605180479353
   4     -0.02128436662102
   5     -0.52202191676656
   6    -0.027955187897249
   7    -7.1496384417326e-06
   8    3.9100596064531e-05
   9     0.021250679718992
  10      0.52203964892646
  11     0.027932825241593
  12    -2.6207409347699e-06
  13    2.286504685516e-05
  14    -0.00013099268674987
  15    -0.021176451004636
  16     -0.52205183150462
  17    -0.027898844773132
  18    0.00012094643051421
  19    -7.4450264785586e-06
  20    4.3045131534967e-05
  21     0.021270737057909
  22      0.52202908162498
  23     0.027978533624977
  24    5.0557584827294e-05
  25    1.9582629207262e-05
  26    -0.00011349573178634
  27    -0.021306834922813
  28     -0.52206291944049
  29    -0.027810070671788
  30    0.00015266594795044
  31    4.7117797432865e-06
  32    -3.2771964082721e-05
  33     0.021187280278221
  34      0.52206693255757
  35     0.027938551898632
  36    9.0842876778863e-05
 Sym= A
 Ene=              24
 Spin= Alpha
 Occup=    0.00000
   1      0.50719486797135
   2     0.052486358354776
   3     -0.32965725818651
   4     -0.15367623962412
   5     0.020893893278596
   6     -0.27183032550254
   7     0.052431223893647
   8     -0.32935950744967
   9      0.15900979716909
  10     0.007874467529187
  11     -0.26919853624282
  12      0.50684988522406