[Molden Format]
made by pyscf v[2.0.1]
[Atoms] (AU)
C   1   6   -12.96446266473323    -0.82707338726680     0.00000000000000
C   2   6   -13.30706186601933     1.79016470768469     0.00000000000000
C   3   6   -10.53821237370529    -1.85986082750791     0.00000000000000
C   4   6   -11.17974231281547     3.35290792495641     0.00000000000000
C   5   6    -8.36309906903577    -0.32142676666723     0.00000000000000
C   6   6    -8.75639895309194     2.31345854363535     0.00000000000000
C   7   6    -5.76644016962649    -1.44258163436937     0.00000000000000
C   8   6    -5.38961479565901    -4.07621596506373     0.00000000000000
C   9   6    -2.95570955650329    -5.08096852097147     0.00000000000000
C   10   6    -0.84112333678574    -3.51193184541908     0.00000000000000
C   11   6    -1.12013366216107    -0.86586903847088     0.00000000000000
C   12   6    -3.59823506116150     0.09549522854951     0.00000000000000
H   13   1   -15.20541388925464     2.59964695004217     0.00000000000000
H   14   1   -10.35981099482530    -3.91099447423649     0.00000000000000
H   15   1   -11.39993034415081     5.40555505541686     0.00000000000000
H   16   1    -7.15259053846937     3.60490683939976     0.00000000000000
H   17   1    -6.98895030904707    -5.37162179878855     0.00000000000000
H   18   1    -2.70195054245478    -7.12936097577027     0.00000000000000
H   19   1     1.02540315437362    -4.37814711554208     0.00000000000000
H   20   1    -3.84909629339259     2.13178234629333     0.00000000000000
H   21   1   -14.60015047089398    -2.08671407141706     0.00000000000000
H   22   1     0.42896783027627     0.31885348899786     0.00000000000000
[GTO]
1 0
 s    3 1.00
             71.616837    0.15432897000916
             13.045096    0.53532814003178
             3.5305122     0.4446345400264
 s    3 1.00
             2.9412494  -0.099967230075964
             0.6834831    0.39951283030359
             0.2222899    0.70011547053201
 p    3 1.00
             2.9412494    0.15591627210511
             0.6834831    0.60768372820466
             0.2222899    0.39195739529202

2 0
 s    3 1.00
             71.616837    0.15432897000916
             13.045096    0.53532814003178
             3.5305122     0.4446345400264
 s    3 1.00
             2.9412494  -0.099967230075964
             0.6834831    0.39951283030359
             0.2222899    0.70011547053201
 p    3 1.00
             2.9412494    0.15591627210511
             0.6834831    0.60768372820466
             0.2222899    0.39195739529202

3 0
 s    3 1.00
             71.616837    0.15432897000916
             13.045096    0.53532814003178
             3.5305122     0.4446345400264
 s    3 1.00
             2.9412494  -0.099967230075964
             0.6834831    0.39951283030359
             0.2222899    0.70011547053201
 p    3 1.00
             2.9412494    0.15591627210511
             0.6834831    0.60768372820466
             0.2222899    0.39195739529202

4 0
 s    3 1.00
             71.616837    0.15432897000916
             13.045096    0.53532814003178
             3.5305122     0.4446345400264
 s    3 1.00
             2.9412494  -0.099967230075964
             0.6834831    0.39951283030359
             0.2222899    0.70011547053201
 p    3 1.00
             2.9412494    0.15591627210511
             0.6834831    0.60768372820466
             0.2222899    0.39195739529202

5 0
 s    3 1.00
             71.616837    0.15432897000916
             13.045096    0.53532814003178
             3.5305122     0.4446345400264
 s    3 1.00
             2.9412494  -0.099967230075964
             0.6834831    0.39951283030359
             0.2222899    0.70011547053201
 p    3 1.00
             2.9412494    0.15591627210511
             0.6834831    0.60768372820466
             0.2222899    0.39195739529202

6 0
 s    3 1.00
             71.616837    0.15432897000916
             13.045096    0.53532814003178
             3.5305122     0.4446345400264
 s    3 1.00
             2.9412494  -0.099967230075964
             0.6834831    0.39951283030359
             0.2222899    0.70011547053201
 p    3 1.00
             2.9412494    0.15591627210511
             0.6834831    0.60768372820466
             0.2222899    0.39195739529202

7 0
 s    3 1.00
             71.616837    0.15432897000916
             13.045096    0.53532814003178
             3.5305122     0.4446345400264
 s    3 1.00
             2.9412494  -0.099967230075964
             0.6834831    0.39951283030359
             0.2222899    0.70011547053201
 p    3 1.00
             2.9412494    0.15591627210511
             0.6834831    0.60768372820466
             0.2222899    0.39195739529202

8 0
 s    3 1.00
             71.616837    0.15432897000916
             13.045096    0.53532814003178
             3.5305122     0.4446345400264
 s    3 1.00
             2.9412494  -0.099967230075964
             0.6834831    0.39951283030359
             0.2222899    0.70011547053201
 p    3 1.00
             2.9412494    0.15591627210511
             0.6834831    0.60768372820466
             0.2222899    0.39195739529202

9 0
 s    3 1.00
             71.616837    0.15432897000916
             13.045096    0.53532814003178
             3.5305122     0.4446345400264
 s    3 1.00
             2.9412494  -0.099967230075964
             0.6834831    0.39951283030359
             0.2222899    0.70011547053201
 p    3 1.00
             2.9412494    0.15591627210511
             0.6834831    0.60768372820466
             0.2222899    0.39195739529202

10 0
 s    3 1.00
             71.616837    0.15432897000916
             13.045096    0.53532814003178
             3.5305122     0.4446345400264
 s    3 1.00
             2.9412494  -0.099967230075964
             0.6834831    0.39951283030359
             0.2222899    0.70011547053201
 p    3 1.00
             2.9412494    0.15591627210511
             0.6834831    0.60768372820466
             0.2222899    0.39195739529202

11 0
 s    3 1.00
             71.616837    0.15432897000916
             13.045096    0.53532814003178
             3.5305122     0.4446345400264
 s    3 1.00
             2.9412494  -0.099967230075964
             0.6834831    0.39951283030359
             0.2222899    0.70011547053201
 p    3 1.00
             2.9412494    0.15591627210511
             0.6834831    0.60768372820466
             0.2222899    0.39195739529202

12 0
 s    3 1.00
             71.616837    0.15432897000916
             13.045096    0.53532814003178
             3.5305122     0.4446345400264
 s    3 1.00
             2.9412494  -0.099967230075964
             0.6834831    0.39951283030359
             0.2222899    0.70011547053201
 p    3 1.00
             2.9412494    0.15591627210511
             0.6834831    0.60768372820466
             0.2222899    0.39195739529202

13 0
 s    3 1.00
            3.42525091    0.15432897070298
            0.62391373    0.53532814243847
             0.1688554    0.44463454202535

14 0
 s    3 1.00
            3.42525091    0.15432897070298
            0.62391373    0.53532814243847
             0.1688554    0.44463454202535

15 0
 s    3 1.00
            3.42525091    0.15432897070298
            0.62391373    0.53532814243847
             0.1688554    0.44463454202535

16 0
 s    3 1.00
            3.42525091    0.15432897070298
            0.62391373    0.53532814243847
             0.1688554    0.44463454202535

17 0
 s    3 1.00
            3.42525091    0.15432897070298
            0.62391373    0.53532814243847
             0.1688554    0.44463454202535

18 0
 s    3 1.00
            3.42525091    0.15432897070298
            0.62391373    0.53532814243847
             0.1688554    0.44463454202535

19 0
 s    3 1.00
            3.42525091    0.15432897070298
            0.62391373    0.53532814243847
             0.1688554    0.44463454202535

20 0
 s    3 1.00
            3.42525091    0.15432897070298
            0.62391373    0.53532814243847
             0.1688554    0.44463454202535

21 0
 s    3 1.00
            3.42525091    0.15432897070298
            0.62391373    0.53532814243847
             0.1688554    0.44463454202535

22 0
 s    3 1.00
            3.42525091    0.15432897070298
            0.62391373    0.53532814243847
             0.1688554    0.44463454202535

[5d]
[7f]
[9g]

[MO]
 Sym= A
 Ene=               0
 Spin= Alpha
 Occup=    1.00000
   1    -0.0013946450235912
   2    0.00017165670935048
   3    3.5398312414205e-05
   4    4.6104675235732e-06
   5    -1.5969789741389e-16
   6    -0.002440224590229
   7    -0.0001652645477325
   8    -0.00014226433539665
   9    6.0688687528719e-05
  10    3.7758839179389e-17
  11    0.0069277138783794
  12    -0.0067284331235692
  13    -0.0035946886130439
  14    -0.0026022760644056
  15    -1.5776385669647e-17
  16    -0.0013974425388418
  17    0.00017060154333259
  18    2.0509384452311e-05
  19    -2.8651017714324e-05
  20    8.5462515677513e-17
  21      0.98161338209468
  22      0.03640811883624
  23    -0.00038683787149714
  24    0.00014351107225602
  25    3.2656426544281e-18
  26    0.0069422068298532
  27     -0.00672190706046
  28    -0.00060970986076469
  29    0.0043905828634016
  30    1.1790663290079e-18
  31     -0.14312715065892
  32    -0.011091948319432
  33    0.0036698158916079
  34    -0.0015902220212361
  35    -3.6073603208955e-19
  36    -0.002484413376442
  37    0.0011233006827645
  38    -0.00011235337029375
  39    0.00065094838924792
  40    8.5509113929016e-20
  41    -7.6778640836592e-05
  42    -8.032158116744e-05
  43    2.1159354921673e-05
  44    -4.5816523579616e-05
  45    -6.0632016758413e-20
  46    0.00023875567831507
  47    3.1731311830043e-05
  48    -8.6437523788197e-06
  49    5.4994559056911e-06
  50    -1.1299036354484e-19
  51    -0.0001332029764519
  52    -7.8797925702223e-05
  53    4.7972226761319e-05
  54    2.3647358619606e-05
  55    -2.7596644244205e-19
  56    -0.0023245556499637
  57    0.0011395047369464
  58    -0.00055311518877512
  59    -0.00035765990886323
  60    -4.2400666285419e-19
  61    -2.6374750897647e-05
  62    5.683455762979e-05
  63    -5.6524061838169e-05
  64    5.8810781428252e-05
  65    -0.00012310123889919
  66    4.1718909887426e-06
  67    -1.7767086196526e-06
  68    -0.00014850689630283
  69    -5.6630547869582e-05
  70    2.4845834607635e-06
 Sym= A
 Ene=               1
 Spin= Alpha
 Occup=    1.00000
   1    -0.00056309184203779
   2    -3.5595674442978e-05
   3    -4.0998299932571e-05
   4    -1.8688393143213e-05
   5    -1.0727937734472e-16
   6    -0.0005401569652684
   7    -1.7634265683819e-05
   8    -3.2462470916601e-05
   9     1.38458638881e-05
  10    9.685845888508e-17
  11    -0.00017257788378132
  12    -0.00082853458085955
  13    -0.00050005921182556
  14    -0.00039768939507024
  15    6.4950877712144e-17
  16    -0.00056029927201318
  17    -3.3312766150678e-05
  18    -1.348539686221e-05
  19    4.1576991748125e-05
  20    -1.4394453072565e-16
  21      0.14413653184422
  22    -0.00069277957392454
  23    -0.0039526387771586
  24    0.0017024777362695
  25    2.3518841023143e-18
  26    -0.00010113683936465
  27    -0.00082618136593528
  28    -4.9652384067614e-05
  29    0.00063460967402091
  30    -1.6635890340983e-18
  31       0.9817278893878
  32     0.034742161159622
  33    0.0014935785081523
  34    -0.00061441632681369
  35    -1.4706115976978e-18
  36    0.0083552586107712
  37    -0.0066356623208652
  38    0.00056952128781956
  39    -0.004395494472811
  40    -1.3772875329973e-18
  41    -0.0017022236999813
  42    0.0001354661597717
  43    -1.3257629161736e-05
  44    -1.3785967344857e-05
  45    -7.3702882618362e-19
  46    -0.0030194343716478
  47    -0.00019646030678062
  48    0.00015521911018329
  49    -8.4655072463806e-05
  50    -2.1539339100718e-19
  51    -0.0012257006691587
  52    0.00017673869194055
  53    -3.729767341193e-05
  54    -3.9295046033889e-05
  55     3.29196202636e-19
  56    0.0079198746658121
  57    -0.0066776353477001
  58    0.0035906506060146
  59    0.0026233816694466
  60    1.0223867117413e-18
  61    -9.3691078550263e-06
  62    -0.00011798672320007
  63    -1.2897186760669e-05
  64    -0.00011583625511994
  65    1.036654029712e-05
  66    -6.4542202892943e-05
  67    -2.8443712328933e-05
  68    1.4228511581354e-06
  69    -1.2835382930351e-05
  70    -5.0852972355265e-05
 Sym= A
 Ene=               2
 Spin= Alpha
 Occup=    1.00000
   1    -2.0225529171352e-06
   2    1.8038230712331e-06
   3    -3.4128320218122e-07
   4    9.3071684306176e-07
   5    5.9994492660069e-17
   6    -0.00029102212109322
   7    -1.0147619897772e-05
   8    -4.3920537773513e-07
   9    5.1997744324769e-07
  10    1.3448487221002e-16
  11    0.00020238566873019
  12    6.1563550563259e-06
  13    3.1693497784099e-06
  14    -3.0212639027075e-06
  15    -5.8704661560432e-17
  16    -7.6171290992508e-05
  17    -1.1887363493028e-06
  18    -1.127054356135e-06
  19    1.4507352625759e-07
  20    -4.0398723014149e-17
  21    0.00024996536331657
  22    -7.5877021716699e-05
  23    -5.7257445081809e-05
  24    1.9031765913381e-05
  25    -3.2491063976629e-17
  26    1.4794334557013e-05
  27    3.3384636172138e-07
  28    -9.9257496688882e-07
  29    -8.0312054463847e-07
  30    -1.9960279889474e-17
  31    0.0035757245431994
  32    0.00033688736291373
  33    -9.1709222832893e-05
  34    -8.3141739008731e-06
  35    3.6708158548441e-17
  36    -0.022739614756736
  37    -0.001024347230178
  38    -0.00024734487531066
  39    -3.0522567751898e-05
  40    -2.315520288303e-17
  41     0.053220895683868
  42    -0.0048523183262437
  43    -0.0035641604179956
  44    -0.0025990879507422
  45    1.4195681010616e-16
  46      0.96810147182873
  47     0.033449829180574
  48    -0.00077556883232919
  49    -0.00059432444919975
  50    1.0122866387573e-17
  51      0.21035920269916
  52    0.0010802750548022
  53    -0.00051471214556946
  54    0.0042160340727201
  55    6.760512916718e-18
  56    -0.0061962142151429
  57    -0.0015598720849377
  58    -0.00080133170311867
  59    0.00049356406314632
  60    4.0616982877602e-18
  61    1.845727484537e-06
  62    -5.5572459559465e-07
  63    1.9286767687667e-07
  64    2.991870967324e-06
  65    6.6085167650941e-05
  66    -0.00028619002850702
  67    -0.0065988106304698
  68    -4.5504297762142e-05
  69    -2.3424748768542e-07
  70    -0.0014763819553565
 Sym= A
 Ene=               3
 Spin= Alpha
 Occup=    1.00000
   1    0.00030875298136562
   2    1.160226812975e-05
   3    1.1340143569221e-06
   4    6.8682508967764e-07
   5    1.3172332176699e-17
   6    -2.3150405067411e-05
   7    1.718186873502e-06
   8    2.388078365072e-06
   9    3.0427986726291e-06
  10    -6.3752864108427e-17
  11    0.00034920542705398
  12    3.3953964158085e-06
  13    8.5815999563292e-07
  14    -1.0741386371223e-05
  15    -6.7483373488821e-19
  16    -0.00064942516601647
  17    -2.2466337621315e-05
  18    1.5143028388517e-07
  19    2.0568486167049e-06
  20    4.7158118460371e-17
  21    0.00027252604941112
  22    -1.4757749574853e-05
  23    -3.5827287234272e-05
  24    -1.0470017471025e-05
  25    2.2765461323886e-17
  26    -0.0013083922048844
  27    -4.903768620988e-05
  28    -2.9059587144594e-05
  29    6.4554440816594e-06
  30    -1.1089671203834e-18
  31    0.00039728463232857
  32    0.0001469026527138
  33    -0.00013194222247398
  34    -0.00048038514250117
  35    -1.0607138609027e-16
  36    -0.061440312272268
  37    -0.0021425553383024
  38    -5.7800723703568e-05
  39    -0.00018881240335263
  40    1.8008293921875e-17
  41    -0.034209355004065
  42    0.00091103141807782
  43    0.0005425896053278
  44    0.00064645318724218
  45    6.0221865310609e-17
  46     -0.20792641383511
  47    -0.014132552943525
  48    0.00059861632175267
  49    -0.0044453085048758
  50    -3.7982292432682e-18
  51      0.96444427827771
  52     0.036560054766214
  53    -0.00019685853748499
  54    -0.0014758879629302
  55    -1.302083939816e-18
  56     0.076464478873096
  57    -0.0040842476927069
  58    -0.0040542234978681
  59    0.0015003651619611
  60    -5.3182110140584e-18
  61    1.4876330302138e-07
  62    -1.3420999724709e-05
  63    4.0225041747281e-06
  64    1.2944500024898e-05
  65    0.0003837983391044
  66    0.00012881485204409
  67    0.0015181747751297
  68    -0.00040403489364911
  69    -1.9077969546709e-06
  70    -0.0071303033759656
 Sym= A
 Ene=               4
 Spin= Alpha
 Occup=    1.00000
   1      0.17896788521563
   2    -0.00024826094721798
   3     0.000633837749189
   4    -0.0041850640320698
   5    -9.2387029834648e-18
   6       0.9544310248923
   7     0.032165339355533
   8    0.00028304084154702
   9    -0.00023186510576892
  10    3.6750972891655e-17
  11    -0.0037128362817994
  12    -0.0012432505068654
  13    0.0006629685041159
  14    -0.00042752395013187
  15    -5.1606377300291e-18
  16       0.2050333801019
  17    0.0006877580542781
  18    0.0034604210275867
  19    0.0024064660878221
  20    9.1466753996867e-17
  21    0.0030576060033208
  22    0.00018523876645321
  23    0.00011398639720981
  24    -5.4676048773189e-05
  25    3.5082787991089e-18
  26    -0.0018683493848076
  27    -0.0013617356478135
  28     0.000871435107344
  29    -0.00023140133133592
  30    -1.890808370562e-18
  31    0.00031821717902771
  32    -6.5770047017724e-05
  33    5.5921495809503e-05
  34    -2.5453496139951e-05
  35    3.1488354217234e-19
  36    -0.00020222713895062
  37    -1.1056936665221e-05
  38    1.1853142983249e-06
  39    -1.6457888124125e-06
  40    -8.654118075567e-20
  41    -2.2831489598587e-05
  42    -1.6622672760957e-06
  43    -1.6968515369395e-06
  44    -1.1074858317948e-06
  45    7.7700581991993e-19
  46    0.00026529481828713
  47    8.6081711270892e-06
  48    3.9091714797223e-08
  49    -8.4100235871161e-07
  50    1.1791106443758e-19
  51    0.00015226294177619
  52    3.9434226426683e-06
  53    4.2058589268506e-08
  54    1.6140550082458e-06
  55    1.7922533055281e-19
  56    -9.5031534784271e-05
  57    -8.2551256815347e-06
  58    1.8546619545162e-06
  59    -6.5041033723305e-08
  60    1.718995795593e-19
  61    -0.0064403446335768
  62    -5.7153159577714e-05
  63    -0.0013298097936389
  64    -6.6182458675613e-05
  65    4.3830133809968e-06
  66    -1.3835792650308e-07
  67    -1.8942887025407e-06
  68    3.4514627017676e-06
  69     -0.00115497469623
  70    -1.3839512630994e-06
 Sym= A
 Ene=               5
 Spin= Alpha
 Occup=    1.00000
   1     -0.01700166453426
   2    -0.00058403525142239
   3    6.1181385760513e-06
   4    -3.0995732159358e-05
   5    5.3361311441172e-17
   6    0.0018291510331515
   7    0.00013624991625974
   8    -9.6846630029915e-06
   9    -9.4800241762961e-05
  10    -2.8448353299476e-17
  11    -0.013265375708709
  12    -0.0004725479389203
  13    -0.00021324140134739
  14    0.0001162319096165
  15    -2.3237683678103e-16
  16    0.0069339520873007
  17    0.00024078089887739
  18    9.5998865119911e-06
  19    -8.2780443232279e-06
  20     -1.3568410439e-16
  21    0.0013579732990757
  22    0.00038539302098777
  23    2.0908807973379e-05
  24    -2.7903992343676e-05
  25     1.29938853632e-16
  26    -0.001290205829601
  27    -0.00017183759096213
  28    -1.1409510266042e-05
  29    3.7879479952008e-05
  30    -3.1355035294453e-17
  31    -0.0072435474600511
  32    -0.006918510196268
  33    -0.0005781787852423
  34    0.0044082706654529
  35    7.8532650273422e-18
  36      0.98360638742711
  37     0.035227264754246
  38    0.00054517289006309
  39    0.00070043098670525
  40    -1.812003531474e-19
  41      0.10335461272147
  42    -0.003336658603199
  43     0.004067584909643
  44    -0.0016845555282168
  45    2.3364006299897e-17
  46    0.0024027060713084
  47    -0.00090836073332266
  48    0.00040129637747025
  49    -0.00011103098116179
  50    1.6493768558421e-18
  51      0.06938369602125
  52    0.0027442062358158
  53    -4.2051510453907e-05
  54      0.00014535152782
  55    1.3445973199948e-18
  56    -0.032245595375797
  57    -0.0014290414269067
  58    -0.00042577109175369
  59    0.00024579149260649
  60    5.8005480533753e-19
  61    -1.2043805780842e-05
  62    0.00027917622663005
  63    -4.4139904522015e-05
  64    3.3625578418492e-06
  65    -0.006748944054629
  66    -0.00061175757359014
  67    -8.2779108101822e-05
  68    0.00011692979302242
  69    0.00011178215521505
  70    -0.00058645023825787
 Sym= A
 Ene=               6
 Spin= Alpha
 Occup=    1.00000
   1     -0.49715640304395
   2    -0.016956186218119
   3    -0.00038917382210717
   4    -2.4888275103349e-05
   5    6.1562490820462e-17
   6    -0.088847791051005
   7    -0.0057616754333942
   8    -0.0029034789244668
   9    -0.0043549726881151
  10    -1.6544940305766e-17
  11    -0.055531129213967
  12    0.0014532196741007
  13    -0.0020110491189668
  14    0.00068125151789854
  15    2.2021900756426e-18
  16       0.8484619859713
  17     0.031006732206104
  18    -0.00044410846440086
  19    -0.0011446231972903
  20     -1.0745990729e-16
  21    0.00013990284972787
  22    -6.1799500219422e-05
  23    -0.00014000527673561
  24    -0.00040512174860834
  25    -4.9191888497767e-18
  26      0.07883806075515
  27    -0.0032153156193813
  28    0.0034142814572967
  29    -0.0015420818299619
  30    -3.0398748204626e-18
  31    0.0002642002192963
  32    0.00011822019122042
  33    1.5724059698504e-05
  34    -0.00010097769593569
  35    -6.230445229979e-19
  36    -0.014967307907872
  37    -0.00054316830271425
  38    -2.3763269670516e-05
  39    -1.4852275065345e-05
  40    -7.9080909297197e-20
  41    -0.0015231810754235
  42    5.9726309004409e-05
  43    -6.4389518233784e-05
  44    2.9182953624458e-05
  45    -1.3184464755511e-19
  46    -0.00023278611973297
  47    -1.3643520326621e-06
  48    -5.4261916794044e-06
  49    -2.6417776803882e-06
  50    -2.5515566177479e-19
  51    -2.1603263445668e-05
  52    9.422472021318e-06
  53    -5.6549625685533e-06
  54    -1.8415565791903e-08
  55    1.6959009079365e-19
  56    -0.0022973936710151
  57    -8.7848590933585e-05
  58    2.1802079782718e-05
  59    -1.5190694716443e-05
  60    4.7918075209315e-19
  61    0.00063169401618956
  62    0.00028055479880764
  63    -0.0057278894143451
  64    -0.00042362825754136
  65    9.9845927323775e-05
  66    9.0494595157222e-06
  67    2.9610732905495e-06
  68    1.6225326435252e-05
  69    0.0032864510050298
  70    8.8399597167867e-07
 Sym= A
 Ene=               7
 Spin= Alpha
 Occup=    1.00000
   1      0.83578067943735
   2     0.032105316814236
   3    0.00040534256716806
   4     0.001836206538847
   5    1.018854257993e-17
   6     -0.25534248529982
   7    -0.018642874186546
   8     -0.00262286236074
   9    0.0026623382268569
  10    -2.6418959155253e-17
  11     0.059389871179049
  12    -0.0039788643145791
  13    0.0034496796908675
  14    -0.0016217574371294
  15    -2.1947516022514e-17
  16      0.46497763534962
  17     0.018899963439577
  18    -0.00098373782635857
  19    -0.0011692757423073
  20    5.0057831925497e-18
  21    0.00084043796938254
  22    -0.00015981252370505
  23    0.00015637466032278
  24    6.7599887047766e-05
  25    2.8713760043957e-18
  26      0.02077750595374
  27    -0.0027504310853949
  28    0.0021008451410351
  29    -0.00067573418996399
  30    -1.2544961123453e-18
  31    0.00045666469862849
  32    -0.00010237986714699
  33    5.5855613068002e-05
  34    5.0053564951069e-05
  35    -4.9122360877147e-20
  36     0.012153762509799
  37    0.00041911671335912
  38    3.2334544093655e-05
  39    -3.2837453060366e-06
  40    -3.891290599374e-19
  41    0.0014458119831419
  42    -4.1494454441606e-05
  43    5.538538906314e-05
  44    -2.2901385480081e-05
  45    -2.0372248329236e-19
  46    -9.8202764930108e-05
  47    -1.8660347881967e-05
  48    5.3048745805789e-06
  49    -1.9465776924163e-06
  50    -1.3785700876694e-19
  51    0.0010801462012415
  52    5.716803594092e-05
  53    -8.5203031081871e-06
  54    4.5253896651473e-06
  55    8.8021022275121e-20
  56    -0.0029344191667926
  57    -0.00012638368755087
  58    1.2369600894828e-05
  59    4.9122418784742e-06
  60    2.0589037766855e-19
  61    0.0018400011533242
  62    -0.00034445569926495
  63    -0.003271918517502
  64    -0.00014210050798799
  65    -8.3418771868533e-05
  66    -8.7735542679143e-06
  67    1.9085874418243e-08
  68    1.5062274255214e-05
  69    -0.0057560301832666
  70    -9.3471276528529e-06
 Sym= A
 Ene=               8
 Spin= Alpha
 Occup=    1.00000
   1    0.00060363297503135
   2    6.6892993695854e-05
   3    2.1297980434939e-05
   4    4.2630293578962e-06
   5    6.5730717080783e-17
   6    -0.001257157230846
   7    -9.7107140118102e-05
   8    -2.1270013073248e-05
   9    -1.2453769049161e-05
  10    -8.0893540146886e-18
  11    -0.0056720305891563
  12    -0.00029910891026097
  13    -6.8665912566433e-05
  14    -6.4431720089963e-06
  15    -2.0467871800268e-16
  16    0.0054914006273971
  17    0.00035111144203062
  18    7.224362986962e-05
  19    -4.3717984097588e-05
  20    -1.1620176089797e-16
  21    0.0013692643218401
  22    0.00053853539823328
  23    3.2736538121505e-05
  24    3.460983474336e-05
  25    2.2062312000157e-17
  26    -0.024980044558355
  27    -0.0010760992726508
  28    -0.00011825540261089
  29    2.0605609251364e-05
  30    2.6552590253788e-17
  31    -0.007850277584891
  32    -0.0075867687446914
  33    -0.0036604134581871
  34    -0.0022567699336399
  35    1.7391291661455e-17
  36     0.047124361823022
  37    0.0027035163466073
  38    0.00033419995222545
  39    -9.1329473304046e-05
  40    1.0804165744727e-17
  41    -0.095863533701257
  42    -0.0041803318433671
  43    0.00013545095568157
  44    -0.00052696737353632
  45    1.2016656552434e-17
  46     0.028345958225289
  47    0.0024566554950475
  48    -0.00030522094593354
  49    9.7211921677779e-05
  50    -2.5368045685776e-18
  51    -0.071408609632276
  52    -0.0097343984728048
  53    0.0041569802912259
  54    -0.0013235519492727
  55    -2.4380044110494e-18
  56      0.98298478888814
  57     0.036365605945681
  58    0.00033741548981624
  59    -0.00091507005788873
  60    -7.5323507076328e-19
  61    1.1697015093296e-05
  62    5.1532082051772e-05
  63    -4.3253824303727e-05
  64    0.00042881724831872
  65    -0.00043595069640228
  66    0.00059346671034399
  67    -0.00031901159406727
  68    -0.0068558941002828
  69    -3.2927083415384e-06
  70    0.00063266792227092
 Sym= A
 Ene=               9
 Spin= Alpha
 Occup=    1.00000
   1    -0.00016473215104695
   2    -1.0085144648502e-05
   3    -2.9041814123073e-06
   4    1.2078795786712e-06
   5    3.8312823313257e-17
   6    -7.1796940429045e-05
   7    -6.117682312308e-06
   8    -2.1637266528669e-06
   9    -2.5774437582693e-06
  10    9.6906872119999e-17
  11    0.00044758264910561
  12    1.8306538581183e-05
  13    -1.0071365364122e-05
  14    -2.4022597167531e-06
  15    -2.2951028973487e-17
  16    0.00056515101490372
  17    4.802412375291e-05
  18    1.4995774807482e-05
  19    -7.2860575263346e-06
  20    -2.2801628954774e-17
  21    0.00033907937309968
  22    -3.2513108723109e-05
  23    -4.3999750227101e-05
  24    6.0612699746602e-05
  25    -3.8324949445553e-17
  26    -0.0041591327079286
  27    -0.00016941506688629
  28    -6.1911404498721e-06
  29    3.8798507979981e-06
  30    1.2660016252831e-17
  31     0.001550245848803
  32    0.00030058532978662
  33    -0.00032254535427907
  34    -0.00076003040581712
  35    6.3143706020312e-17
  36    -0.099261951210952
  37    -0.010713523806883
  38    -0.0042688078164786
  39    0.0015269408399489
  40    -2.4744433243608e-17
  41      0.98006824985049
  42     0.037075242696825
  43    -0.00034918801830085
  44    0.0014761235175662
  45    6.0095298511226e-18
  46    -0.056513080245622
  47    -0.0092039375827013
  48    0.0037221117954145
  49    0.0025119457808443
  50    -6.2997306332818e-18
  51    0.0079807084234839
  52    0.00025042353478739
  53    0.00047343076197863
  54    -0.00046491831954049
  55    -7.1329824707427e-18
  56      0.10259732453908
  57    0.0034946292034058
  58    -4.7008345565362e-05
  59    0.00017353371419469
  60    -6.2495419284374e-18
  61    7.2642251686225e-07
  62    -3.8632864061017e-05
  63    -4.9659733518159e-06
  64    5.7251500805475e-05
  65    0.00076185004437108
  66    -0.0067141407654131
  67    0.00046735962083961
  68    -0.00076760455347873
  69    1.6996850656799e-06
  70    -0.00013665414850763
 Sym= A
 Ene=              10
 Spin= Alpha
 Occup=    1.00000
   1     0.050580594896264
   2    0.0044286626275479
   3    0.0015095285676609
   4    -0.00077545505455375
   5    -1.3001933611663e-16
   6    0.0077547655212212
   7    0.00062056868220309
   8    0.00028729960820576
   9    0.00049810826579456
  10    6.7160944034035e-17
  11     -0.38075614212196
  12    -0.014037118762422
  13    0.00042369494412901
  14    -0.00053580865657475
  15    1.8929353751013e-17
  16    -0.078258930767916
  17    -0.0094385764892619
  18    -0.0037412752825287
  19    0.0017580861288401
  20    2.0099098089982e-17
  21    -0.0032282846106016
  22    -0.0038319718248065
  23    -0.00073052135012699
  24    -0.0049626597006237
  25    2.5538779311664e-18
  26      0.91107603726515
  27     0.033746511261269
  28    -0.0012248457194366
  29    -0.00028318260359154
  30    -4.6996694955976e-18
  31    0.00042458527269141
  32    1.2961710302551e-05
  33    -0.00012246796752915
  34    -6.6812635311624e-05
  35    -3.1543963147412e-19
  36    -0.0019488146808419
  37    -0.00010061147701555
  38    -3.9586212787248e-05
  39    -3.0397883015824e-05
  40    -4.0919751928099e-19
  41    0.0016493612228429
  42    8.1357363180597e-05
  43    -1.4437574597296e-05
  44    4.0832746418958e-06