[Molden Format]
made by pyscf v[2.0.1]
[Atoms] (AU)
C   1   6   -12.96446266473323    -0.82707338726680     0.00000000000000
C   2   6   -13.30706186601933     1.79016470768469     0.00000000000000
C   3   6   -10.53821237370529    -1.85986082750791     0.00000000000000
C   4   6   -11.17974231281547     3.35290792495641     0.00000000000000
C   5   6    -8.36309906903577    -0.32142676666723     0.00000000000000
C   6   6    -8.75639895309194     2.31345854363535     0.00000000000000
C   7   6    -5.76644016962649    -1.44258163436937     0.00000000000000
C   8   6    -5.38961479565901    -4.07621596506373     0.00000000000000
C   9   6    -2.95570955650329    -5.08096852097147     0.00000000000000
C   10   6    -0.84112333678574    -3.51193184541908     0.00000000000000
C   11   6    -1.12013366216107    -0.86586903847088     0.00000000000000
C   12   6    -3.59823506116150     0.09549522854951     0.00000000000000
H   13   1   -15.20541388925464     2.59964695004217     0.00000000000000
H   14   1   -10.35981099482530    -3.91099447423649     0.00000000000000
H   15   1   -11.39993034415081     5.40555505541686     0.00000000000000
H   16   1    -7.15259053846937     3.60490683939976     0.00000000000000
H   17   1    -6.98895030904707    -5.37162179878855     0.00000000000000
H   18   1    -2.70195054245478    -7.12936097577027     0.00000000000000
H   19   1     1.02540315437362    -4.37814711554208     0.00000000000000
H   20   1    -3.84909629339259     2.13178234629333     0.00000000000000
H   21   1   -14.60015047089398    -2.08671407141706     0.00000000000000
H   22   1     0.42896783027627     0.31885348899786     0.00000000000000
[GTO]
1 0
 s    8 1.00
                  6665  0.00069158396281299
                  1000  0.0053257961529341
                   228   0.027060721042034
                 64.71    0.10165684614077
                 21.06     0.2745748236174
                 7.495    0.44829431892377
                 2.797    0.28490261071525
                0.5215   0.015194859206082
 s    8 1.00
                  6665  -0.00029326965268655
                  1000  -0.0023180354739745
                   228  -0.011499786038565
                 64.71  -0.046826727009787
                 21.06   -0.12846616875047
                 7.495   -0.30126627246289
                 2.797   -0.25563070233011
                0.5215      1.093793361012
 s    1 1.00
                0.1596                   1
 p    3 1.00
                 9.439   0.056979251590039
                 2.002    0.31320721150073
                0.5456    0.76037674173753
 p    1 1.00
                0.1517                   1
 d    1 1.00
                  0.55                   1

2 0
 s    8 1.00
                  6665  0.00069158396281299
                  1000  0.0053257961529341
                   228   0.027060721042034
                 64.71    0.10165684614077
                 21.06     0.2745748236174
                 7.495    0.44829431892377
                 2.797    0.28490261071525
                0.5215   0.015194859206082
 s    8 1.00
                  6665  -0.00029326965268655
                  1000  -0.0023180354739745
                   228  -0.011499786038565
                 64.71  -0.046826727009787
                 21.06   -0.12846616875047
                 7.495   -0.30126627246289
                 2.797   -0.25563070233011
                0.5215      1.093793361012
 s    1 1.00
                0.1596                   1
 p    3 1.00
                 9.439   0.056979251590039
                 2.002    0.31320721150073
                0.5456    0.76037674173753
 p    1 1.00
                0.1517                   1
 d    1 1.00
                  0.55                   1

3 0
 s    8 1.00
                  6665  0.00069158396281299
                  1000  0.0053257961529341
                   228   0.027060721042034
                 64.71    0.10165684614077
                 21.06     0.2745748236174
                 7.495    0.44829431892377
                 2.797    0.28490261071525
                0.5215   0.015194859206082
 s    8 1.00
                  6665  -0.00029326965268655
                  1000  -0.0023180354739745
                   228  -0.011499786038565
                 64.71  -0.046826727009787
                 21.06   -0.12846616875047
                 7.495   -0.30126627246289
                 2.797   -0.25563070233011
                0.5215      1.093793361012
 s    1 1.00
                0.1596                   1
 p    3 1.00
                 9.439   0.056979251590039
                 2.002    0.31320721150073
                0.5456    0.76037674173753
 p    1 1.00
                0.1517                   1
 d    1 1.00
                  0.55                   1

4 0
 s    8 1.00
                  6665  0.00069158396281299
                  1000  0.0053257961529341
                   228   0.027060721042034
                 64.71    0.10165684614077
                 21.06     0.2745748236174
                 7.495    0.44829431892377
                 2.797    0.28490261071525
                0.5215   0.015194859206082
 s    8 1.00
                  6665  -0.00029326965268655
                  1000  -0.0023180354739745
                   228  -0.011499786038565
                 64.71  -0.046826727009787
                 21.06   -0.12846616875047
                 7.495   -0.30126627246289
                 2.797   -0.25563070233011
                0.5215      1.093793361012
 s    1 1.00
                0.1596                   1
 p    3 1.00
                 9.439   0.056979251590039
                 2.002    0.31320721150073
                0.5456    0.76037674173753
 p    1 1.00
                0.1517                   1
 d    1 1.00
                  0.55                   1

5 0
 s    8 1.00
                  6665  0.00069158396281299
                  1000  0.0053257961529341
                   228   0.027060721042034
                 64.71    0.10165684614077
                 21.06     0.2745748236174
                 7.495    0.44829431892377
                 2.797    0.28490261071525
                0.5215   0.015194859206082
 s    8 1.00
                  6665  -0.00029326965268655
                  1000  -0.0023180354739745
                   228  -0.011499786038565
                 64.71  -0.046826727009787
                 21.06   -0.12846616875047
                 7.495   -0.30126627246289
                 2.797   -0.25563070233011
                0.5215      1.093793361012
 s    1 1.00
                0.1596                   1
 p    3 1.00
                 9.439   0.056979251590039
                 2.002    0.31320721150073
                0.5456    0.76037674173753
 p    1 1.00
                0.1517                   1
 d    1 1.00
                  0.55                   1

6 0
 s    8 1.00
                  6665  0.00069158396281299
                  1000  0.0053257961529341
                   228   0.027060721042034
                 64.71    0.10165684614077
                 21.06     0.2745748236174
                 7.495    0.44829431892377
                 2.797    0.28490261071525
                0.5215   0.015194859206082
 s    8 1.00
                  6665  -0.00029326965268655
                  1000  -0.0023180354739745
                   228  -0.011499786038565
                 64.71  -0.046826727009787
                 21.06   -0.12846616875047
                 7.495   -0.30126627246289
                 2.797   -0.25563070233011
                0.5215      1.093793361012
 s    1 1.00
                0.1596                   1
 p    3 1.00
                 9.439   0.056979251590039
                 2.002    0.31320721150073
                0.5456    0.76037674173753
 p    1 1.00
                0.1517                   1
 d    1 1.00
                  0.55                   1

7 0
 s    8 1.00
                  6665  0.00069158396281299
                  1000  0.0053257961529341
                   228   0.027060721042034
                 64.71    0.10165684614077
                 21.06     0.2745748236174
                 7.495    0.44829431892377
                 2.797    0.28490261071525
                0.5215   0.015194859206082
 s    8 1.00
                  6665  -0.00029326965268655
                  1000  -0.0023180354739745
                   228  -0.011499786038565
                 64.71  -0.046826727009787
                 21.06   -0.12846616875047
                 7.495   -0.30126627246289
                 2.797   -0.25563070233011
                0.5215      1.093793361012
 s    1 1.00
                0.1596                   1
 p    3 1.00
                 9.439   0.056979251590039
                 2.002    0.31320721150073
                0.5456    0.76037674173753
 p    1 1.00
                0.1517                   1
 d    1 1.00
                  0.55                   1

8 0
 s    8 1.00
                  6665  0.00069158396281299
                  1000  0.0053257961529341
                   228   0.027060721042034
                 64.71    0.10165684614077
                 21.06     0.2745748236174
                 7.495    0.44829431892377
                 2.797    0.28490261071525
                0.5215   0.015194859206082
 s    8 1.00
                  6665  -0.00029326965268655
                  1000  -0.0023180354739745
                   228  -0.011499786038565
                 64.71  -0.046826727009787
                 21.06   -0.12846616875047
                 7.495   -0.30126627246289
                 2.797   -0.25563070233011
                0.5215      1.093793361012
 s    1 1.00
                0.1596                   1
 p    3 1.00
                 9.439   0.056979251590039
                 2.002    0.31320721150073
                0.5456    0.76037674173753
 p    1 1.00
                0.1517                   1
 d    1 1.00
                  0.55                   1

9 0
 s    8 1.00
                  6665  0.00069158396281299
                  1000  0.0053257961529341
                   228   0.027060721042034
                 64.71    0.10165684614077
                 21.06     0.2745748236174
                 7.495    0.44829431892377
                 2.797    0.28490261071525
                0.5215   0.015194859206082
 s    8 1.00
                  6665  -0.00029326965268655
                  1000  -0.0023180354739745
                   228  -0.011499786038565
                 64.71  -0.046826727009787
                 21.06   -0.12846616875047
                 7.495   -0.30126627246289
                 2.797   -0.25563070233011
                0.5215      1.093793361012
 s    1 1.00
                0.1596                   1
 p    3 1.00
                 9.439   0.056979251590039
                 2.002    0.31320721150073
                0.5456    0.76037674173753
 p    1 1.00
                0.1517                   1
 d    1 1.00
                  0.55                   1

10 0
 s    8 1.00
                  6665  0.00069158396281299
                  1000  0.0053257961529341
                   228   0.027060721042034
                 64.71    0.10165684614077
                 21.06     0.2745748236174
                 7.495    0.44829431892377
                 2.797    0.28490261071525
                0.5215   0.015194859206082
 s    8 1.00
                  6665  -0.00029326965268655
                  1000  -0.0023180354739745
                   228  -0.011499786038565
                 64.71  -0.046826727009787
                 21.06   -0.12846616875047
                 7.495   -0.30126627246289
                 2.797   -0.25563070233011
                0.5215      1.093793361012
 s    1 1.00
                0.1596                   1
 p    3 1.00
                 9.439   0.056979251590039
                 2.002    0.31320721150073
                0.5456    0.76037674173753
 p    1 1.00
                0.1517                   1
 d    1 1.00
                  0.55                   1

11 0
 s    8 1.00
                  6665  0.00069158396281299
                  1000  0.0053257961529341
                   228   0.027060721042034
                 64.71    0.10165684614077
                 21.06     0.2745748236174
                 7.495    0.44829431892377
                 2.797    0.28490261071525
                0.5215   0.015194859206082
 s    8 1.00
                  6665  -0.00029326965268655
                  1000  -0.0023180354739745
                   228  -0.011499786038565
                 64.71  -0.046826727009787
                 21.06   -0.12846616875047
                 7.495   -0.30126627246289
                 2.797   -0.25563070233011
                0.5215      1.093793361012
 s    1 1.00
                0.1596                   1
 p    3 1.00
                 9.439   0.056979251590039
                 2.002    0.31320721150073
                0.5456    0.76037674173753
 p    1 1.00
                0.1517                   1
 d    1 1.00
                  0.55                   1

12 0
 s    8 1.00
                  6665  0.00069158396281299
                  1000  0.0053257961529341
                   228   0.027060721042034
                 64.71    0.10165684614077
                 21.06     0.2745748236174
                 7.495    0.44829431892377
                 2.797    0.28490261071525
                0.5215   0.015194859206082
 s    8 1.00
                  6665  -0.00029326965268655
                  1000  -0.0023180354739745
                   228  -0.011499786038565
                 64.71  -0.046826727009787
                 21.06   -0.12846616875047
                 7.495   -0.30126627246289
                 2.797   -0.25563070233011
                0.5215      1.093793361012
 s    1 1.00
                0.1596                   1
 p    3 1.00
                 9.439   0.056979251590039
                 2.002    0.31320721150073
                0.5456    0.76037674173753
 p    1 1.00
                0.1517                   1
 d    1 1.00
                  0.55                   1

13 0
 s    3 1.00
                 13.01   0.033498726389998
                 1.962    0.23480080117413
                0.4446     0.8136829578829
 s    1 1.00
                 0.122                   1
 p    1 1.00
                 0.727                   1

14 0
 s    3 1.00
                 13.01   0.033498726389998
                 1.962    0.23480080117413
                0.4446     0.8136829578829
 s    1 1.00
                 0.122                   1
 p    1 1.00
                 0.727                   1

15 0
 s    3 1.00
                 13.01   0.033498726389998
                 1.962    0.23480080117413
                0.4446     0.8136829578829
 s    1 1.00
                 0.122                   1
 p    1 1.00
                 0.727                   1

16 0
 s    3 1.00
                 13.01   0.033498726389998
                 1.962    0.23480080117413
                0.4446     0.8136829578829
 s    1 1.00
                 0.122                   1
 p    1 1.00
                 0.727                   1

17 0
 s    3 1.00
                 13.01   0.033498726389998
                 1.962    0.23480080117413
                0.4446     0.8136829578829
 s    1 1.00
                 0.122                   1
 p    1 1.00
                 0.727                   1

18 0
 s    3 1.00
                 13.01   0.033498726389998
                 1.962    0.23480080117413
                0.4446     0.8136829578829
 s    1 1.00
                 0.122                   1
 p    1 1.00
                 0.727                   1

19 0
 s    3 1.00
                 13.01   0.033498726389998
                 1.962    0.23480080117413
                0.4446     0.8136829578829
 s    1 1.00
                 0.122                   1
 p    1 1.00
                 0.727                   1

20 0
 s    3 1.00
                 13.01   0.033498726389998
                 1.962    0.23480080117413
                0.4446     0.8136829578829
 s    1 1.00
                 0.122                   1
 p    1 1.00
                 0.727                   1

21 0
 s    3 1.00
                 13.01   0.033498726389998
                 1.962    0.23480080117413
                0.4446     0.8136829578829
 s    1 1.00
                 0.122                   1
 p    1 1.00
                 0.727                   1

22 0
 s    3 1.00
                 13.01   0.033498726389998
                 1.962    0.23480080117413
                0.4446     0.8136829578829
 s    1 1.00
                 0.122                   1
 p    1 1.00
                 0.727                   1

[5d]
[7f]
[9g]

[MO]
 Sym= A
 Ene=               0
 Spin= Alpha
 Occup=    1.00000
   1    -9.4382862016227e-17
   2    -1.2623693309696e-16
   3    -7.4148420217224e-16
   4    -6.0488441502781e-16
   5    -5.1625794704034e-16
   6     -0.23080292209355
   7    1.4176894276358e-16
   8    -5.4524579058434e-16
   9     -0.14160503054811
  10    1.3365067816034e-16
  11    -0.011630387068385
  12    -0.011478124819712
  13    -5.2263257394928e-16
  14    -2.1421656615604e-16
  15    4.0783979223978e-17
  16    4.2685923334568e-16
  17    -2.3756869001119e-16
  18    -1.6318019208899e-16
  19    -5.2125629954754e-16
  20     -0.23731591461647
  21    1.6780331582172e-15
  22    -3.0060098312516e-16
  23      -0.1509579424707
  24    2.9962651772867e-16
  25     -0.01585245099814
  26    0.0067528857617432
  27    1.326100003964e-16
  28    1.0662149940913e-16
  29    -3.2623012498955e-17
  30    -1.7427567986762e-16
  31    1.0624344884037e-16
  32    -4.3273340089558e-16
  33    -3.3392791285184e-16
  34      -0.2131592120731
  35    -8.7765741737899e-16
  36    2.7709329708488e-16
  37     -0.11717206390011
  38    1.2690123424912e-16
  39    0.0044470767605974
  40    -0.014283550435776
  41    1.0285781081981e-16
  42    -1.5995858674814e-16
  43    2.5168195564962e-17
  44    5.3795014816729e-17
  45    -2.0847845447504e-15
  46    2.370527927329e-16
  47    -1.4719279384737e-16
  48     -0.23113867277962
  49    -1.120983056486e-15
  50    7.4467607912785e-16
  51     -0.14187562870207
  52    -5.4853989061826e-18
  53    0.0002230953853716
  54     0.016357563193864
  55    3.4620112672145e-16
  56    9.5338600524795e-17
  57    -3.5504291612054e-16
  58    -3.8364751219532e-16
  59    6.2386590541925e-15
  60    1.9929245920956e-16
  61    -3.6318776372808e-16
  62     -0.16149237808009
  63    1.788084985654e-15
  64    -6.088443041353e-16
  65     -0.10221641531793
  66    3.9414423543916e-17
  67     0.012448768770736
  68    -0.0053213614307873
  69    2.5268834042862e-16
  70    1.1834962645506e-16
  71    -5.8153349414713e-17
  72    3.0841093406036e-17
  73    6.4579300392782e-16
  74    -1.3825130155368e-16
  75    4.5764999788013e-17
  76     -0.21353548167868
  77    -8.4700070755689e-16
  78    1.086721647085e-15
  79     -0.11742662722153
  80    -1.2507493472151e-16
  81     0.013416869256086
  82    0.0066596519465353
  83    -7.7662130860148e-17
  84    -1.9020388095301e-16
  85    3.7263499737992e-16
  86    4.1231887023548e-16
  87    -3.6502206709052e-15
  88    7.3295568823856e-17
  89    -1.5903066856664e-16
  90    -0.014645350280025
  91    3.0340401939895e-15
  92    -3.2129330916511e-15
  93     0.010161523698279
  94    2.693097863953e-17
  95    0.0086267989071012
  96    -0.0037091805331884
  97    -3.7485916891979e-17
  98    1.2744177697071e-16
  99    1.0147003348663e-16
 100    3.7917145711301e-16
 101    -7.6115728295505e-16
 102    3.590483389254e-17
 103    7.1135953136472e-17
 104      0.01184035126953
 105    5.1620789455768e-16
 106    -1.3812036686805e-15
 107     0.012771819645114
 108    1.6532560406503e-16
 109    0.00035403989335409
 110    -0.00055354148347609
 111    1.7846916560653e-16
 112    2.6185569466851e-16
 113    3.1687587283689e-17
 114    -2.1175105378931e-16
 115    -7.477684160408e-16
 116    -2.9109694908001e-16
 117    1.0552176996147e-17
 118    0.0013529637881033
 119    1.6124956329781e-15
 120    -1.1208012047082e-15
 121     6.78260127728e-05
 122    -9.2143968586557e-18
 123    -0.0014872638934479
 124    0.00028566940103861
 125    1.2715350821153e-16
 126    -2.7626117099709e-16
 127    -1.7156095104103e-16
 128    -9.9570134067858e-18
 129    5.8344290611809e-16
 130    -6.3019614402509e-17
 131    8.7689190166916e-18
 132    -0.0079117874790451
 133    -2.4154607601135e-16
 134    4.132676556917e-16
 135    -0.010728392524557
 136    -1.6108210742759e-16
 137    -0.00010349017599108
 138    5.3554611109722e-05
 139    3.1755296780945e-16
 140    2.0572892610657e-17
 141    -2.2245951367216e-17
 142    -5.369924254126e-17
 143    1.6793465075086e-15
 144    1.4123354145615e-16
 145    8.8057546852291e-17
 146    0.0013425754118028
 147    -3.3045561643279e-16
 148    7.3305256497016e-16
 149    8.7833761770366e-05
 150    -1.8360128213036e-16
 151    -0.0011961928240692
 152    0.00083046556590446
 153    7.4275570538455e-17
 154    -1.9538671118842e-16
 155    -2.3957965218006e-16
 156    -2.7647109293889e-16
 157    3.9576172056799e-16
 158    3.8384980066587e-16
 159    1.3708159173826e-16
 160      0.01187668466717
 161    -2.9903664872308e-15
 162    8.7736872173925e-16
 163     0.012928444074194
 164    3.4289274051541e-17
 165    0.00064841371959809
 166    0.00013220852497914
 167    -8.5807079365583e-17
 168    1.6210832825442e-16
 169    6.2098315133349e-17
 170    1.7154531318084e-15
 171    -1.4824886633935e-16
 172    -5.5637797095952e-17
 173    -0.0084354666440103
 174    3.7564522576787e-16
 175    -7.9825773041878e-16
 176    -6.8832713959039e-18
 177    1.8268661959527e-16
 178    -0.0068449425490189
 179    -6.6963860271842e-18
 180    -6.9409181218281e-17
 181    -1.400576541987e-16
 182    -6.9964013495079e-17
 183    -0.0078423692668656
 184    -1.1083891981472e-16
 185    8.3730906970865e-17
 186    -1.7765471586168e-16
 187    -2.3382326647496e-16
 188    -0.0068615788721542
 189    9.1060109968955e-17
 190    3.0225198089588e-16
 191    -3.0354547690441e-17
 192    -1.6779998936596e-16
 193    0.00018819541127726
 194    1.0966937266267e-16
 195    -1.0354785381002e-15
 196    -1.740586164055e-16
 197    -4.2288314037468e-17
 198    6.8681232150132e-06
 199    -3.6982882606459e-16
 200    2.6127355137536e-17
 201    1.2177443883818e-16
 202    -2.9018221897152e-17
 203    -0.00038200152866587
 204    -3.0450296868112e-16
 205    -7.3986895495916e-16
 206    1.3659434210825e-16
 207    7.1589757045589e-17
 208    0.00018200507131165
 209    2.6407962901622e-16
 210    -9.8376241894525e-16
 211    3.4292124250693e-17
 212    2.4215804783422e-16
 213    -0.0078288420459628
 214    -5.8489199175468e-17
 215    -2.7066085405483e-16
 216    9.3001855557417e-17
 217    1.4037387045433e-16
 218    2.1312470433532e-05
 Sym= A
 Ene=               1
 Spin= Alpha
 Occup=    1.00000
   1    5.7014106744777e-18
   2    -1.0813272577516e-16
   3    -1.9309917372497e-15
   4    3.9187115603787e-18
   5    7.493522184046e-17
   6      0.20942516521007
   7    -5.4555797968137e-16
   8    -3.115639558827e-15
   9      0.22083566507439
  10    1.2719634029401e-17
  11     0.017816886455807
  12    -0.0057011069885743
  13    5.7219355930413e-16
  14    -1.5019637983599e-16
  15    4.5910812817679e-16
  16    1.0180017214684e-15
  17    8.7119190503221e-16
  18    3.2168929827477e-16
  19    -1.3425806100691e-16
  20    0.00064630087557693
  21    -2.3788213489574e-16
  22    -1.7773791926193e-15
  23    0.00069790572919265
  24    -4.1364221109618e-17
  25    -0.011563469685852
  26    -0.027170539199238
  27    -3.7454167379126e-16
  28    3.6942427791765e-16
  29    -3.779937245072e-16
  30    -6.3039838227111e-16
  31    1.742968504113e-15
  32     1.92275106997e-16
  33    -2.7565165800692e-17
  34      0.34270485448419
  35    6.7694374048908e-16
  36    2.9884619805145e-15
  37      0.22432150442388
  38    2.7468229777138e-16
  39    -0.016026118234217
  40    0.0085410968158502
  41    6.0653390445717e-16
  42    -3.3766689214923e-16
  43    -4.179935621162e-16
  44    -6.320544661258e-16
  45    3.9711534901892e-15
  46    4.9950652050655e-16
  47    2.8148381157324e-17
  48      -0.2084432429249
  49    1.1881854909592e-15
  50    -1.0611530332329e-16
  51     -0.22013971989093
  52    -1.4539970747736e-16
  53    -0.016565038521003
  54    0.0088808124773045
  55    -1.0533214864627e-16
  56    -8.242851449226e-16
  57    -2.8148021517561e-16
  58    -5.2287776289481e-16
  59    9.0130205672278e-16
  60    3.7351241353667e-16
  61    2.2251178116785e-16
  62    -0.0012264811757874
  63    2.0248112063215e-15
  64    2.4797331136763e-15
  65    -0.00057673869037759
  66    -1.9852911550102e-16
  67    -0.011793925102512
  68    -0.027689684705705
  69    -9.7905816903298e-17
  70    -2.8230559337823e-16
  71    -4.8374794775327e-16
  72    -9.128863835337e-16
  73    -2.9478388842846e-15
  74    2.243596626912e-16
  75    5.3465702505162e-16
  76     -0.34268099515311
  77    1.7490095840439e-15
  78    -4.3024384045509e-16
  79     -0.22484924919969
  80    -5.401677757253e-17
  81     0.017193372516756
  82    -0.0055666527459095
  83    1.8694760594664e-16
  84    4.3223646697545e-16
  85    1.686680136428e-16
  86    -4.5009231187958e-17
  87    2.4246405764729e-15
  88    3.5232524981816e-16
  89    3.0753716617875e-16
  90    3.0497849052279e-05
  91    1.4298651786795e-16
  92    -5.2276552065732e-15
  93    3.6946071880821e-05
  94    -7.0701064971504e-17
  95    -0.00035172908335984
  96    -0.00090938833230303
  97    2.1073728345975e-16
  98    3.4573552538464e-16
  99    1.5808027304546e-16
 100    4.973805655046e-16
 101    -6.3547071480725e-15
 102    -2.196062579825e-16
 103    3.6755128083261e-16
 104    -0.00097167911914148
 105    1.8947986608575e-16
 106    -3.3547100635798e-15
 107    0.0048600451723261
 108    3.824775998925e-16
 109    -0.00098283843893685
 110    0.00055884646914428
 111    1.5538769326207e-16
 112    -6.4119156233138e-16
 113    -1.5315484942135e-16
 114    -1.5465407881961e-16
 115    -1.558436229323e-15
 116    2.3518944605623e-16
 117    -5.6628726017152e-16
 118    -0.0044493000677022
 119    -2.0319003063799e-15
 120    2.1495812090785e-15
 121    -0.006619331457981
 122    1.8296166226965e-16
 123    0.00021255417012492
 124    -0.00012204379573675
 125    2.8881280890087e-16
 126    -1.3566760254817e-16
 127    2.4792953708427e-16
 128    4.9371102688459e-16
 129    -1.0764618745949e-15
 130    3.4226762293072e-18
 131    6.1219258837997e-16
 132    -8.135130764921e-05
 133    -1.3181284445019e-15
 134    -3.1133054733325e-15
 135    5.2886046612857e-05
 136    -1.1499129494144e-16
 137    0.0001073808443767
 138    0.00027369944824598
 139    1.9510028508874e-16
 140    3.0782908247986e-16
 141    2.1442990489147e-16
 142    2.3919345437268e-16
 143    -7.1661625792313e-16
 144    4.0422346446928e-17
 145    1.3333887490884e-16
 146    0.0045031202938244
 147    2.7058617010882e-15
 148    -1.4204663976731e-15
 149    0.0066015574036365
 150    -3.8109401883316e-18
 151    -0.00024533232935699
 152    7.9391477585443e-05
 153    -6.3857327456007e-17
 154    4.6659017070499e-16
 155    -5.7283297207825e-17
 156    -3.5898193675558e-16
 157    4.7158296503606e-15
 158    -1.1890692229005e-16
 159    1.3520420818258e-16
 160    0.0010925382887773
 161    1.365472789156e-15
 162    -3.8625485893603e-17
 163    -0.0047176258353559
 164    -3.0171719725039e-16
 165    0.0010977866156911
 166    -0.00031461346138654
 167    -2.3225226992178e-16
 168    -1.0242787996982e-16
 169    -1.4944775459293e-16
 170    1.4345059196618e-15
 171    1.4476344686062e-16
 172    4.2162605876912e-16
 173    3.1294832293665e-05
 174    5.4682930779288e-16
 175    1.940077394259e-15
 176    4.403301780097e-16
 177    3.5093390455765e-16
 178     0.010463311020929
 179    -8.3751986398229e-16
 180    1.523386961986e-16
 181    -6.6096633911831e-16
 182    -2.2150409148144e-16
 183    -0.010209794676752
 184    2.4775608372775e-17
 185    -7.4805290764069e-16
 186    -2.4383769110129e-16
 187    3.5119525974048e-17
 188    -0.010489893447346
 189    4.8036142596432e-16
 190    -6.6585132095044e-16
 191    -4.0900658718727e-16
 192    -2.7958329000073e-17
 193    0.00032864556189538
 194    5.7702443374825e-16
 195    6.883276573387e-16
 196    2.8040742736367e-16
 197    -1.3633717856672e-16
 198    -5.9919707284376e-05
 199    2.2309851692214e-16
 200    2.3908384469188e-17
 201    4.4091795912597e-17
 202    4.8437815947014e-16
 203    -3.8233530365944e-06
 204    -6.4247707691565e-16
 205    9.3462333496207e-17
 206    1.7583073445216e-16
 207    -3.1195214514703e-16
 208    -0.00037609317075167
 209    5.3037494308182e-16
 210    -2.0065989221897e-15
 211    -5.0652039104961e-16
 212    -3.8917307422063e-17
 213      0.01024265924035
 214    -5.937776317106e-16
 215    1.1650792185879e-16
 216    4.7848864035803e-17
 217    -4.5619721442784e-16
 218    7.4393701621796e-05
 Sym= A
 Ene=               2
 Spin= Alpha
 Occup=    1.00000
   1    2.685628435153e-16
   2    1.3927556198383e-16
   3    -4.0828188664998e-15
   4    3.6226442384542e-16
   5    2.5657411014211e-16
   6      0.15313838921628
   7    1.6698741677406e-15
   8    -3.465818213634e-15
   9      0.10831255757362
  10    4.4291426315378e-17
  11    -0.011814012718888
  12     0.023172602274015
  13    2.2595645666093e-16
  14    3.1019972011525e-16
  15    -5.9306613215349e-16
  16    -9.3056648073098e-16
  17    7.0982609360215e-15
  18    -2.7985975109234e-16
  19    2.461995490726e-16
  20      0.20275302185332
  21    8.5501400420595e-16
  22    -3.8314511081372e-15
  23      0.24044362766915
  24    3.1275344046427e-17
  25     0.010102146495368
  26    -0.0042396868484897
  27    -2.0962837549361e-16
  28    -9.373338176115e-17
  29    5.1912324953328e-16
  30    8.0380048092943e-16