[Molden Format]
made by pyscf v[2.0.1]
[Atoms] (AU)
He   1   2     0.00000000000000     0.00000000000000     0.00000000000000
He   2   2     8.01742894903574     0.00000000000000     0.00000000000000
He   3   2     0.00000000000000     8.01742894903574     0.00000000000000
He   4   2     8.01742894903574     8.01742894903574     0.00000000000000
He   5   2     4.00871446506924     4.00871446506924     5.66917837369519
He   6   2     4.00871446506924     4.00871446506924    -5.66917837369519
He   7   2     4.00871446506924     4.00871446506924     0.00000000000000
[GTO]
1 0
 s    3 1.00
                 38.36   0.040176075383249
                  5.77    0.26136807476949
                  1.24    0.79307123949544
 s    1 1.00
                0.2976                   1
 p    1 1.00
                 1.275                   1

2 0
 s    3 1.00
                 38.36   0.040176075383249
                  5.77    0.26136807476949
                  1.24    0.79307123949544
 s    1 1.00
                0.2976                   1
 p    1 1.00
                 1.275                   1

3 0
 s    3 1.00
                 38.36   0.040176075383249
                  5.77    0.26136807476949
                  1.24    0.79307123949544
 s    1 1.00
                0.2976                   1
 p    1 1.00
                 1.275                   1

4 0
 s    3 1.00
                 38.36   0.040176075383249
                  5.77    0.26136807476949
                  1.24    0.79307123949544
 s    1 1.00
                0.2976                   1
 p    1 1.00
                 1.275                   1

5 0
 s    3 1.00
                 38.36   0.040176075383249
                  5.77    0.26136807476949
                  1.24    0.79307123949544
 s    1 1.00
                0.2976                   1
 p    1 1.00
                 1.275                   1

6 0
 s    3 1.00
                 38.36   0.040176075383249
                  5.77    0.26136807476949
                  1.24    0.79307123949544
 s    1 1.00
                0.2976                   1
 p    1 1.00
                 1.275                   1

7 0
 s    3 1.00
                 38.36   0.040176075383249
                  5.77    0.26136807476949
                  1.24    0.79307123949544
 s    1 1.00
                0.2976                   1
 p    1 1.00
                 1.275                   1

[5d]
[7f]
[9g]

[MO]
 Sym= A
 Ene=               0
 Spin= Alpha
 Occup=    1.00000
   1       1.2178244956291
   2     -0.43559525430498
   3    -2.064753042474e-06
   4    -2.0647530423311e-06
   5    1.5860152274333e-17
   6    -7.3299000714847e-06
   7    2.2970452543717e-05
   8    -3.6289094148943e-07
   9    -6.3845724961604e-07
  10    -1.6590425550606e-18
  11    -7.3299000714047e-06
  12    2.2970452543641e-05
  13    -6.3845724960803e-07
  14    -3.6289094130385e-07
  15    3.7069162323288e-17
  16    3.2654273952122e-05
  17    -6.9370546508446e-05
  18    6.7818190320971e-07
  19    6.7818190320668e-07
  20    -2.2099474302363e-20
  21    -7.3299009429495e-06
  22    2.2970454560895e-05
  23    -5.0067411192154e-07
  24    -5.0067411191975e-07
  25    1.948547909962e-07
  26    -7.3299009428284e-06
  27    2.2970454560952e-05
  28    -5.0067411192053e-07
  29    -5.0067411192045e-07
  30    -1.9485479099652e-07
  31    -0.003239681417882
  32    0.0071114836495506
  33    -0.00013667404035474
  34    -0.00013667404035474
  35    6.167282517361e-19
 Sym= A
 Ene=               1
 Spin= Alpha
 Occup=    1.00000
   1     -0.43556882882149
   2       1.2178575305376
   3    2.8698812502306e-06
   4    2.8698812505588e-06
   5    5.2240587589262e-17
   6    -4.9420828636691e-05
   7    1.3067654669178e-05
   8    -3.3404993078465e-07
   9    6.5624484931356e-07
  10    3.0684141498667e-18
  11    -4.9420828636767e-05
  12    1.3067654669378e-05
  13    6.5624484934195e-07
  14    -3.340499308582e-07
  15    -3.5783877785475e-17
  16    -2.7550283372304e-05
  17    6.0600331759649e-05
  18    -6.3711931496002e-07
  19    -6.3711931495641e-07
  20    -7.201920713916e-19
  21    -4.9420829239008e-05
  22    1.3067653627085e-05
  23    1.6109746226778e-07
  24    1.6109746226638e-07
  25    -7.0024416135112e-07
  26    -4.9420829238908e-05
  27    1.306765362724e-05
  28    1.6109746226591e-07
  29    1.6109746226606e-07
  30    7.0024416135262e-07
  31    0.00069501126895793
  32    -0.0066978239204811
  33    -0.0001150507339449
  34    -0.0001150507339449
  35    -1.7280970896696e-19
 Sym= A
 Ene=               2
 Spin= Alpha
 Occup=    1.00000
   1    -2.929271483939e-06
   2    6.8717121002159e-06
   3       1.0000002011836
   4    2.0118398322953e-07
   5    1.0796155430034e-16
   6    -6.5268392327834e-06
   7    1.0286925473058e-05
   8    -2.011895861509e-07
   9    2.0349171139246e-07
  10    -1.022770863387e-16
  11    -5.6302943455494e-06
  12    1.0188878047401e-05
  13    2.0118747757666e-07
  14    -1.9888535245697e-07
  15    2.0206784461196e-16
  16    -5.5902323369218e-06
  17    1.019456542582e-05
  18    -2.011874231289e-07
  19    -2.0118702925374e-07
  20    -3.9657636337125e-17
  21    -6.0785668335957e-06
  22    1.0237901818885e-05
  23    1.1508661520911e-09
  24    1.1512598021724e-09
  25    -2.8452355302339e-07
  26    -6.0785668335219e-06
  27    1.0237901818732e-05
  28    1.1508660903888e-09
  29    1.1512599421619e-09
  30    2.8452355306441e-07
  31    0.00042339246416886
  32    -0.00093213763057687
  33    2.369289310628e-08
  34    2.5990003126656e-08
  35    -1.5215571076399e-17
 Sym= A
 Ene=               3
 Spin= Alpha
 Occup=    1.00000
   1    -2.9292714838084e-06
   2    6.8717120996767e-06
   3    2.0118398321639e-07
   4       1.0000002011836
   5    1.6242195943611e-16
   6    -5.6302943454448e-06
   7    1.0188878047427e-05
   8    -1.9888535280807e-07
   9    2.011874776394e-07
  10    -1.5267780368425e-16
  11    -6.5268392326732e-06
  12    1.0286925472846e-05
  13    2.034917114828e-07
  14    -2.01189586253e-07
  15    3.6851037202308e-17
  16    -5.5902323368391e-06
  17    1.0194565425639e-05
  18    -2.011870291336e-07
  19    -2.0118742312162e-07
  20    1.5391938687578e-16
  21    -6.0785668335068e-06
  22    1.0237901818721e-05
  23    1.1512598908556e-09
  24    1.1508661158738e-09
  25    -2.845235530297e-07
  26    -6.0785668333927e-06
  27    1.0237901818626e-05
  28    1.1512598185763e-09
  29    1.1508659689191e-09
  30    2.8452355307445e-07
  31    0.00042339246416916
  32    -0.00093213763057736
  33    2.5990003088441e-08
  34    2.3692893093417e-08
  35    -1.6821774347474e-17
 Sym= A
 Ene=               4
 Spin= Alpha
 Occup=    1.00000
   1    -1.0172935754553e-16
   2    1.033021783599e-17
   3    1.2536343924245e-16
   4    1.5922553055095e-16
   5      0.99999999999961
   6    -1.2510946153879e-16
   7    2.0498769757814e-17
   8    -7.1182913232853e-17
   9    -1.0776739585509e-16
  10    -3.9374350685976e-13
  11    -5.6768533607177e-17
  12    -1.1398722936258e-17
  13    -9.8660142215144e-17
  14    -9.8525070828658e-17
  15    -3.9376714495923e-13
  16    5.1157169299147e-17
  17    -9.7956403940925e-17
  18    -4.8774334463181e-17
  19    -3.2755109319503e-16
  20    -3.9340667044869e-13
  21    -6.3395298255832e-07
  22    6.9329988212414e-08
  23    -1.5923878977734e-16
  24    -2.5063019210542e-16
  25    -2.3042336166894e-09
  26    6.3395298260171e-07
  27    -6.9329988266019e-08
  28    3.2986273505956e-16
  29    -2.6122607029558e-16
  30    -2.3042338209677e-09
  31    4.1788781578628e-17
  32    -6.110483532373e-17
  33    -2.1698631453067e-16
  34    -1.8358879029554e-16
  35    -2.2971100141833e-09
 Sym= A
 Ene=               5
 Spin= Alpha
 Occup=    1.00000
   1    -7.3298999977112e-06
   2    2.2970452398354e-05
   3    3.6289093659758e-07
   4    -6.3845725685743e-07
   5    -1.0792142770461e-16
   6       1.2178244956279
   7     -0.43559525430237
   8    2.0647529331034e-06
   9    -2.0647529214794e-06
  10    1.4775842594839e-16
  11    3.2654274019637e-05
  12    -6.9370546646877e-05
  13    -6.7818190704874e-07
  14    6.7818190989621e-07
  15    -2.9567136425516e-17
  16    -7.3299014990829e-06
  17    2.2970455580713e-05
  18    6.3845721433814e-07
  19    -3.6289098187927e-07
  20    -1.3412248443921e-17
  21    -7.329900775638e-06
  22    2.2970454085276e-05
  23    5.0067410201407e-07
  24    -5.0067409968294e-07
  25    1.9485478686761e-07
  26    -7.3299007758132e-06
  27    2.2970454085186e-05
  28    5.0067410206285e-07
  29    -5.0067409969048e-07
  30    -1.948547868589e-07
  31    -0.003239681353731
  32    0.0071114835084869
  33    0.00013667403685413
  34    -0.00013667403619808
  35    -7.3182961536419e-18
 Sym= A
 Ene=               6
 Spin= Alpha
 Occup=    1.00000
   1    -4.9420828665086e-05
   2    1.306765476273e-05
   3     3.34049941505e-07
   4    6.562448627301e-07
   5    5.6296666624082e-17
   6     -0.43556882881989
   7       1.2178575305347
   8    -2.8698810886233e-06
   9    2.8698810798475e-06
  10    6.8242973345611e-17
  11    -2.7550283393847e-05
  12    6.0600331842971e-05
  13    6.3711932510453e-07
  14    -6.3711932786373e-07
  15    1.0393860087308e-16
  16    -4.9420827472922e-05
  17    1.3067651942827e-05
  18    -6.5624481943472e-07
  19    -3.3404989564655e-07
  20    -9.512235479459e-18
  21    -4.9420828336524e-05
  22    1.3067653434838e-05
  23    -1.6109746190419e-07
  24    1.6109746115665e-07
  25    -7.0024414869193e-07
  26    -4.942082833672e-05
  27    1.3067653434449e-05
  28    -1.6109746192005e-07
  29    1.6109746116433e-07
  30    7.0024414868814e-07
  31    0.00069501124285132
  32    -0.0066978237677236
  33    0.00011505073163675
  34    -0.00011505073110848
  35    6.403057912732e-18
 Sym= A
 Ene=               7
 Spin= Alpha
 Occup=    0.00000
   1    6.5268391744872e-06
   2    -1.0286925383068e-05
   3    -2.0118958505474e-07
   4    -2.0349171139967e-07
   5    -7.1068219561627e-17
   6    2.9292713235008e-06
   7    -6.8717117338954e-06
   8       1.0000002011836
   9    -2.0118396924659e-07
  10    -3.7030878069451e-16
  11    5.590232277344e-06
  12    -1.0194565334443e-05
  13    -2.0118742199185e-07
  14    2.0118702936123e-07
  15    -6.0729088740528e-16
  16    5.6302940402752e-06
  17    -1.0188877493374e-05
  18    2.0118746472598e-07
  19    1.9888533858668e-07
  20    -2.1178505392891e-16
  21    6.0785666468604e-06
  22    -1.0237901503533e-05
  23    1.1508659768276e-09
  24    -1.1512600074858e-09
  25    2.8452354309866e-07
  26    6.0785666468276e-06
  27    -1.0237901503639e-05
  28    1.1508658968365e-09
  29    -1.1512599290984e-09
  30    -2.8452354304282e-07
  31    -0.00042339245024452
  32    0.00093213760217963
  33    2.3692893042485e-08
  34    -2.5990000957102e-08
  35    -3.4085092389309e-20
 Sym= A
 Ene=               8
 Spin= Alpha
 Occup=    0.00000
   1    -5.6302942599287e-06
   2    1.0188877908525e-05
   3    1.9888535055036e-07
   4    2.0118747633664e-07
   5    -1.2184039111841e-16
   6    -2.9292713127379e-06
   7    6.8717117010534e-06
   8    -2.0118396921811e-07
   9       1.0000002011836
  10    -1.0936646599651e-16
  11    -5.5902322511817e-06
  12    1.0194565286818e-05
  13    2.0118702759427e-07
  14    -2.0118742240089e-07
  15    -2.0372383088026e-16
  16    -6.5268389047994e-06
  17    1.0286924874159e-05
  18    -2.0349169715243e-07
  19    -2.0118957155377e-07
  20    -2.0139970621241e-16
  21    -6.0785666182725e-06
  22    1.0237901455778e-05
  23    -1.15125981981e-09
  24    1.1508660904935e-09
  25    -2.8452354170563e-07
  26    -6.0785666180251e-06
  27    1.0237901455311e-05
  28    -1.15125962345e-09
  29    1.1508660586879e-09
  30    2.845235416989e-07
  31    0.00042339244824849
  32    -0.00093213759778534
  33    -2.5990002922566e-08
  34    2.3692891070604e-08
  35    -1.3958520034127e-17
 Sym= A
 Ene=               9
 Spin= Alpha
 Occup=    0.00000
   1    -1.7203155809994e-18
   2    -8.6152176383567e-19
   3    -1.302604418004e-16
   4    -1.5199676102082e-16
   5    -3.9376409583125e-13
   6    -5.6612716802446e-17
   7    -6.7067114034916e-17
   8    -3.7942481516956e-16
   9    -1.1646898414178e-16
  10      0.99999999999961
  11    1.1328196455809e-18
  12    1.6758542539091e-18
  13    3.1882177383706e-16
  14    -7.7931122029469e-17
  15    -3.9417593350555e-13
  16    1.0348082136643e-18
  17    5.8334395276438e-18
  18    3.9339915254996e-16
  19    -5.4825655022924e-17
  20    -3.9354878847836e-13
  21    -6.3395297350442e-07
  22    6.932999826573e-08
  23    1.1317839276684e-16
  24    1.7606892645964e-16
  25    -2.3042336325396e-09
  26    6.3395297348943e-07
  27    -6.9329998279468e-08
  28    -1.8486964828633e-16
  29    2.5521083285654e-16
  30    -2.3042338593381e-09
  31    -5.3595197339908e-18
  32    5.7589088775841e-17
  33    3.5101060215314e-17
  34    6.0548794705119e-17
  35    -2.2971100551391e-09
 Sym= A
 Ene=              10
 Spin= Alpha
 Occup=    0.00000
   1    -7.3298999976567e-06
   2    2.2970452398357e-05
   3    -6.3845725703114e-07
   4    3.6289093657539e-07
   5    -5.0866585527061e-17
   6    3.2654274019493e-05
   7    -6.9370546646582e-05
   8    6.7818191034784e-07
   9    -6.7818190719897e-07
  10    1.4366161200018e-18
  11       1.2178244956279
  12     -0.43559525430236
  13    -2.0647529258614e-06
  14    2.0647529314123e-06
  15    1.4499157610197e-16
  16    -7.3299014989963e-06
  17    2.297045558043e-05
  18    -3.6289098174705e-07
  19    6.3845721442469e-07
  20    2.7591261167764e-17
  21    -7.3299007757163e-06
  22    2.297045408487e-05
  23    -5.0067409968913e-07
  24    5.0067410205844e-07
  25    1.9485478687884e-07
  26    -7.3299007756818e-06
  27    2.297045408505e-05
  28    -5.0067409972507e-07
  29    5.006741020296e-07
  30    -1.9485478689227e-07
  31    -0.0032396813537312
  32    0.0071114835084876
  33    -0.00013667403619803
  34    0.00013667403685423
  35    2.2306521670331e-18
 Sym= A
 Ene=              11
 Spin= Alpha
 Occup=    0.00000
   1    -4.9420828665134e-05
   2    1.3067654762911e-05
   3    6.5624486284912e-07
   4    3.3404994148053e-07
   5    1.6709361512774e-17
   6    -2.7550283393795e-05
   7    6.0600331842859e-05
   8    -6.371193281317e-07
   9    6.3711932523835e-07
  10    -3.4890472843252e-18
  11      -0.4355688288199
  12       1.2178575305347
  13      2.8698810752e-06
  14    -2.8698810906558e-06
  15    -3.8637187522451e-17
  16    -4.9420827472933e-05
  17    1.3067651942689e-05
  18    -3.3404989569433e-07
  19    -6.5624481946081e-07
  20    -9.3892266882429e-18
  21    -4.9420828336816e-05
  22    1.3067653434553e-05
  23    1.6109746116757e-07
  24    -1.6109746191826e-07
  25    -7.002441486786e-07
  26    -4.942082833649e-05
  27    1.3067653434687e-05
  28    1.6109746118155e-07
  29    -1.6109746190732e-07
  30    7.0024414868755e-07
  31    0.00069501124285207
  32    -0.0066978237677239
  33    -0.00011505073110849
  34    0.0001150507316367
  35    -8.6562649764615e-19
 Sym= A
 Ene=              12
 Spin= Alpha
 Occup=    0.00000
   1    -5.6302942600306e-06
   2    1.0188877908706e-05
   3    2.0118747625323e-07
   4    1.9888535065137e-07
   5    -1.0459589790516e-16
   6    -5.5902322509879e-06
   7    1.0194565286667e-05
   8    -2.0118742201679e-07
   9    2.0118702761226e-07
  10    3.3109281184078e-16
  11    -2.9292713096831e-06
  12    6.871711704983e-06
  13       1.0000002011836
  14    -2.0118396873919e-07
  15    2.2703208376649e-16
  16    -6.5268389048683e-06
  17    1.028692487433e-05
  18    -2.0118957134396e-07
  19    -2.0349169731151e-07
  20    -1.2155561734495e-16
  21    -6.0785666179603e-06
  22    1.0237901455299e-05
  23    1.1508659315135e-09
  24    -1.1512598005879e-09
  25    -2.8452354170198e-07
  26    -6.0785666182538e-06
  27    1.0237901455509e-05
  28    1.1508662938302e-09
  29    -1.1512598913239e-09
  30    2.8452354171018e-07
  31    0.00042339244824846
  32    -0.00093213759778529
  33    2.3692890920946e-08
  34    -2.5990002797488e-08
  35    1.5957533960221e-16
 Sym= A
 Ene=              13
 Spin= Alpha
 Occup=    0.00000
   1    6.5268391744328e-06
   2    -1.028692538276e-05
   3    -2.0349171106267e-07
   4    -2.0118958515903e-07
   5    -1.0068609743164e-16
   6    5.5902322771917e-06
   7    -1.019456533471e-05
   8    2.0118702935054e-07
   9    -2.011874224032e-07
  10    -7.1504240917639e-17
  11    2.9292713255129e-06
  12    -6.8717117326248e-06
  13    -2.0118396872884e-07
  14       1.0000002011836
  15    5.9006007386867e-17
  16    5.6302940403834e-06
  17    -1.0188877493196e-05
  18    1.9888533842283e-07
  19    2.0118746456109e-07
  20    -1.598600886278e-16
  21    6.078566646853e-06
  22    -1.023790150404e-05
  23    -1.1512601953317e-09
  24    1.1508661645854e-09
  25    2.8452354287917e-07
  26    6.0785666466933e-06
  27    -1.0237901503334e-05
  28    -1.151259883854e-09
  29    1.1508660545194e-09
  30    -2.8452354272146e-07
  31    -0.00042339245024456
  32    0.00093213760217971
  33    -2.5990000917668e-08
  34    2.3692892994883e-08
  35    2.1007024083814e-17
 Sym= A
 Ene=              14
 Spin= Alpha
 Occup=    0.00000
   1    4.6061239492251e-17
   2    -3.8167768854855e-17
   3    2.0090398039169e-16
   4    3.8140094144025e-17
   5    -3.9383170813122e-13
   6    -5.5744013796753e-17
   7    2.040114185551e-16
   8    -5.9275497507167e-16
   9    -1.9673732285363e-16
  10    -3.9417555423511e-13
  11    -1.2139403561911e-16
  12    -2.410751905999e-16
  13    2.0131311903378e-16
  14    6.688394781671e-17
  15      0.99999999999961
  16    -3.1946830033067e-17
  17     3.08812303151e-17
  18    4.6388759305439e-16
  19    -6.5115219715615e-16
  20    -3.9354262753491e-13
  21    -6.3395297325028e-07
  22    6.9329998168786e-08
  23    -1.424651527371e-16
  24    -1.4258484760198e-16
  25    -2.3042335646807e-09
  26    6.3395297322472e-07
  27    -6.9329998111407e-08
  28    -2.5553752986441e-16
  29    3.8400599965206e-16
  30    -2.3042339338829e-09
  31    -5.7983647567977e-19
  32    -3.3845944338511e-17
  33    1.0795015896704e-16
  34    -1.6838603143245e-16
  35    -2.2971098408351e-09
 Sym= A
 Ene=              15
 Spin= Alpha
 Occup=    0.00000
   1    3.2654274087588e-05
   2    -6.9370546786673e-05
   3    -6.7818191417866e-07
   4    -6.7818191421536e-07
   5    3.5946589260335e-17
   6    -7.3299014251527e-06
   7    2.2970455435001e-05
   8    6.3845722143015e-07
   9    3.6289097701399e-07
  10    1.3454886292863e-18
  11    -7.3299014253173e-06
  12    2.2970455435289e-05
  13    3.6289097705987e-07
  14    6.3845722174032e-07
  15    -2.5152344390247e-17
  16       1.2178244956266
  17     -0.43559525429972
  18    2.0647528133068e-06
  19    2.0647528092653e-06
  20    5.5250660948769e-17
  21    -7.3299006081055e-06
  22    2.2970453608642e-05
  23    5.006740899426e-07
  24    5.0067408988254e-07
  25    1.9485478274234e-07
  26    -7.3299006081756e-06
  27    2.2970453608571e-05
  28    5.0067408992204e-07
  29    5.0067408987437e-07
  30    -1.948547827464e-07
  31    -0.0032396812895787
  32    0.0071114833674187
  33    0.00013667403269748
  34    0.00013667403269749
  35    -1.229508641689e-18
 Sym= A
 Ene=              16
 Spin= Alpha
 Occup=    0.00000
   1    -2.7550283417008e-05
   2    6.060033192682e-05
   3    6.3711933825848e-07
   4    6.371193382494e-07
   5    -6.4477224299667e-17
   6    -4.9420827501358e-05
   7    1.3067652036465e-05
   8    -6.562448327309e-07
   9    3.3404990633321e-07
  10    5.4234793568432e-18
  11    -4.9420827501255e-05
  12    1.3067652036129e-05
  13    3.3404990633257e-07
  14    -6.5624483291615e-07
  15    2.3181025337701e-17
  16     -0.43556882881833
  17       1.2178575305318
  18    -2.869880916913e-06
  19    -2.8698809206549e-06
  20    1.4462407985162e-16
  21    -4.9420827435011e-05
  22    1.3067653242773e-05
  23    -1.6109746086265e-07
  24    -1.6109746084375e-07
  25    -7.0024413601703e-07
  26    -4.9420827435026e-05
  27    1.3067653242639e-05
  28    -1.6109746085102e-07
  29    -1.6109746082968e-07
  30    7.0024413601766e-07
  31    0.0006950112167406
  32    -0.006697823614965
  33    0.00011505072880023
  34    0.00011505072880027
  35    -1.3004364518723e-18
 Sym= A
 Ene=              17
 Spin= Alpha
 Occup=    0.00000
   1    5.5902321913753e-06
   2    -1.0194565195246e-05
   3    -2.0118742072655e-07
   4    -2.011870267164e-07
   5    -2.6810478307212e-17
   6    5.6302939549077e-06
   7    -1.0188877354547e-05
   8    2.0118746340787e-07
   9    -1.9888533629431e-07
  10    3.9152603493882e-16
  11    6.5268388465115e-06
  12    -1.0286924783998e-05
  13    -2.0118957024844e-07
  14    2.0349169701651e-07
  15    4.6152011755886e-16
  16    2.929271151527e-06
  17    -6.8717113361299e-06
  18       1.0000002011836
  19    2.0118395544431e-07
  20    1.0283871631509e-16
  21    6.0785664315428e-06
  22    -1.02379011404e-05
  23    1.1508663545456e-09
  24    1.1512599316659e-09
  25    2.8452353168763e-07
  26    6.0785664311562e-06
  27    -1.0237901140159e-05
  28    1.1508662911841e-09
  29    1.1512598207184e-09
  30    -2.8452353167507e-07
  31    -0.0004233924343239
  32    0.00093213756938792
  33    2.3692890654856e-08
  34    2.5990000527721e-08
  35    -1.0669113716555e-16
 Sym= A
 Ene=              18
 Spin= Alpha
 Occup=    0.00000
   1    5.5902321913682e-06
   2    -1.0194565195237e-05
   3    -2.0118702682436e-07
   4    -2.0118742074047e-07
   5    -3.5399990659975e-16
   6    6.5268388465601e-06
   7    -1.0286924784233e-05
   8    2.034916971783e-07
   9    -2.0118957044496e-07
  10    -5.5184063375786e-17
  11    5.6302939548563e-06
  12    -1.0188877354359e-05
  13    -1.9888533646556e-07
  14    2.0118746326548e-07
  15    -6.5194369071322e-16
  16    2.9292711548515e-06
  17    -6.8717113333684e-06
  18    2.0118395538634e-07
  19       1.0000002011836
  20    -2.1325983884964e-16
  21    6.0785664312484e-06
  22    -1.0237901140247e-05
  23    1.1512594907752e-09
  24    1.1508661041714e-09
  25    2.8452353145433e-07
  26    6.0785664314537e-06
  27    -1.0237901140304e-05
  28    1.1512597316363e-09
  29    1.1508661556092e-09
  30    -2.8452353156565e-07
  31    -0.00042339243432389
  32    0.00093213756938784
  33    2.5990000403021e-08
  34    2.3692890651475e-08
  35    1.4555221488675e-16
 Sym= A
 Ene=              19
 Spin= Alpha
 Occup=    0.00000
   1    -2.1752521266519e-19
   2    7.6687751905292e-19
   3    -3.8511807860229e-17
   4    1.581785082774e-16
   5    -3.9342739945702e-13
   6    -1.1937004521513e-17
   7    -3.3225055255301e-17
   8    -2.2124211011111e-16
   9    -2.1018582960456e-16
  10    -3.9358773756345e-13
  11    3.0726791855752e-17
  12    6.7873474885052e-18
  13    -1.2103602059165e-16
  14    -1.8660218518162e-16
  15    -3.9356997271488e-13
  16    -9.1912501971029e-17
  17    -8.8427166884101e-17
  18    1.0636937388944e-16
  19    -2.0046259703228e-16
  20      0.99999999999961
  21    -6.3395296409019e-07
  22    6.9330008125525e-08
  23    1.1816399137728e-16
  24    1.8536884374311e-16
  25    -2.3042336754386e-09
  26    6.3395296409789e-07
  27    -6.93300081156e-08
  28    -4.2343613054284e-18
  29    1.6196101528719e-16
  30    -2.3042338797316e-09
  31    2.7753553497947e-18
  32    2.5008842269023e-17
  33    -2.570991582501e-17
  34    3.3062602335062e-17
  35    -2.2971097389543e-09
 Sym= A
 Ene=              20
 Spin= Alpha
 Occup=    0.00000
   1    -7.3299008905302e-06
   2    2.2970454457452e-05
   3    -1.3778314920327e-07
   4    -1.3778314921578e-07
   5    7.0806012032869e-07
   6    -7.3299007969929e-06
   7    2.2970454127232e-05
   8    1.3778313963578e-07
   9    -1.3778313864539e-07
  10    7.080601032479e-07
  11    -7.3299007971508e-06
  12    2.2970454126973e-05
  13    -1.3778313860709e-07
  14    1.3778313918999e-07
  15    7.0806010353005e-07
  16    -7.3299007032651e-06
  17    2.2970453796041e-05
  18    1.3778312911063e-07
  19    1.3778312881591e-07
  20    7.0806008651877e-07
  21       1.2178244956282
  22     -0.43559525430311
  23    2.3452334394485e-15
  24    -4.5284301582467e-16
  25    2.9200016396097e-06
  26    3.2654274432691e-05
  27    -6.9370547528533e-05
  28    1.1134257126987e-16
  29     7.79843420895e-17
  30    -9.5909406875402e-07
  31    -0.0032396813722166
  32    0.0071114835491344
  33    6.2146264101683e-15
  34    6.136070538915e-15
  35    0.00019328627764185
 Sym= A
 Ene=              21
 Spin= Alpha
 Occup=    0.00000
   1    -4.9420829259241e-05
   2    1.3067653693765e-05
   3    4.9514740385715e-07
   4     4.95147403834e-07
   5    -2.2782621621534e-07
   6    -4.9420828328363e-05
   7    1.3067653407988e-05
   8    -4.951473837522e-07
   9    4.9514738127305e-07
  10    -2.2782621474651e-07
  11    -4.9420828328635e-05
  12    1.3067653407636e-05
  13    4.9514738115428e-07
  14    -4.9514738353057e-07
  15    -2.2782621496702e-07
  16    -4.9420827398471e-05
  17    1.3067653122399e-05
  18    -4.9514736118371e-07
  19    -4.9514736094684e-07
  20    -2.2782621356725e-07
  21     -0.43556882882036
  22       1.2178575305355
  23    3.7794950186832e-15
  24     1.01256362309e-15
  25    -4.058624819572e-06
  26    -2.7550283720343e-05
  27    6.0600332627966e-05
  28    -1.9446090020464e-16
  29    -1.7525420641378e-16
  30    9.0102280514484e-07
  31    0.00069501125037586
  32    -0.0066978238117365
  33    -7.2927879312342e-15
  34    -7.5013119913657e-15
  35    0.00016270630571378
 Sym= A
 Ene=              22
 Spin= Alpha
 Occup=    0.00000
   1    4.4827245240994e-07
   2    -4.9023704981888e-08
   3    -1.1523137653802e-09
   4    -1.1519199991081e-09
   5    -1.218570345378e-16
   6    -4.4827244763605e-07
   7    4.902371180097e-08
   8    -1.1523138880861e-09
   9    1.1519200390476e-09
  10    1.3609256891559e-16
  11    4.4827244551327e-07
  12    -4.9023711594725e-08
  13    -1.1523138813728e-09
  14    1.1519196598685e-09
  15    -1.5105940536042e-16
  16    -4.4827244080484e-07
  17    4.9023718711943e-08
  18    -1.1523134078636e-09
  19    -1.1519203039871e-09
  20    1.7644343390196e-16
  21    -2.5441014323866e-15
  22    -1.3297956116395e-15
  23      0.99999999999961
  24    -2.1310713189157e-16
  25    1.3386639522504e-17
  26    -2.0593044824253e-16
  27    1.6164027112821e-16
  28    -3.9390562262554e-13
  29    -1.6641123018748e-16
  30    -2.0022498692173e-16
  31    2.6006083877537e-16
  32    -2.047456704276e-16
  33    -2.297109962557e-09
  34    2.8965177961944e-17
  35    -4.1387300890645e-17
 Sym= A
 Ene=              23
 Spin= Alpha
 Occup=    0.00000
   1    4.482724524121e-07
   2    -4.9023704983496e-08
   3    -1.1519200901235e-09
   4    -1.1523138019265e-09
   5    -2.0878887268249e-16
   6    4.4827244553194e-07
   7    -4.9023711617037e-08
   8    1.1519198401451e-09
   9    -1.1523137303627e-09
  10    1.6117538355219e-16
  11    -4.482724476658e-07
  12    4.9023711904824e-08
  13    1.1519200483402e-09
  14    -1.1523136827384e-09
  15    -1.2446349083982e-16
  16    -4.4827244077193e-07
  17    4.9023718586746e-08
  18    -1.1519198810826e-09
  19    -1.152313660848e-09
  20    2.3234626587259e-16
  21    -4.6896450666044e-16
  22    7.9447689758238e-16
  23    -2.1297595743129e-16
  24      0.99999999999961
  25    -3.9350197591149e-18
  26    -1.6548643674815e-16
  27    2.7601043928968e-16
  28    -5.2900772970499e-17
  29    -3.9378216276519e-13
  30    2.0951930530725e-17
  31    2.5451137231004e-16
  32    -2.0179855286065e-16
  33    -3.4074842261307e-17
  34    -2.297109958561e-09
  35    8.6273356043401e-18
 Sym= A
 Ene=              24
 Spin= Alpha
 Occup=    0.00000
   1    8.5963915844171e-06
   2    -1.4478579487188e-05
   3    -2.8452355184054e-07
   4    -2.8452355187371e-07
   5    2.3021260402708e-09
   6    8.5963914003004e-06
   7    -1.4478579169284e-05
   8    2.845235435709e-07
   9    -2.8452354217815e-07
  10    2.3021261171584e-09
  11    8.5963914002491e-06
  12    -1.4478579169188e-05
  13    -2.845235421683e-07
  14    2.845235433569e-07
  15    2.3021261844178e-09
  16    8.596391216147e-06
  17    -1.4478578851323e-05
  18    2.845235337962e-07
  19    2.8452353357533e-07
  20    2.3021261760513e-09
  21    4.1426152940407e-06
  22    -9.7180680636979e-06
  23    2.5988857127425e-17
  24    -6.8061264009149e-18
  25       1.0000004023676
  26    7.9057824137979e-06
  27    -1.4417292760225e-05
  28    9.5239801231656e-17
  29    -2.4821126723633e-17
  30    -4.0237445801927e-07
  31    -0.0005987673500101
  32    0.0013182416483573
  33    1.3346385618735e-15
  34    1.3414047364952e-15
  35    4.9682895083531e-08
 Sym= A
 Ene=              25
 Spin= Alpha
 Occup=    0.00000
   1    -7.3299008904591e-06
   2    2.2970454457653e-05
   3    -1.3778314922752e-07
   4    -1.377831491315e-07
   5    -7.0806012031321e-07
   6    -7.3299007970033e-06
   7    2.2970454126721e-05
   8    1.3778313949799e-07
   9    -1.3778313869069e-07
  10    -7.0806010327905e-07
  11    -7.3299007973031e-06
  12    2.2970454127624e-05
  13    -1.3778313885093e-07
  14    1.377831395653e-07
  15    -7.0806010351961e-07
  16    -7.3299007033833e-06
  17    2.2970453796078e-05
  18    1.3778312875828e-07
  19    1.3778312906469e-07
  20    -7.0806008649814e-07
  21     3.26542744329e-05
  22    -6.9370547528972e-05
  23    -5.6661567177605e-19
  24    4.4152054655632e-17
  25    9.5909406877049e-07
  26       1.2178244956282
  27     -0.43559525430311
  28    8.395526152847e-16
  29    -6.5867617671131e-16
  30    -2.9200016396979e-06
  31    -0.0032396813722165
  32    0.0071114835491344
  33    6.1561210407494e-15
  34    6.2274293320549e-15
  35    -0.00019328627764185
 Sym= A
 Ene=              26
 Spin= Alpha
 Occup=    0.00000
   1    -4.9420829259106e-05
   2    1.3067653693882e-05
   3    4.9514740384664e-07
   4    4.9514740375785e-07