[Molden Format]
made by pyscf v[2.0.1]
[Atoms] (AU)
He   1   2     0.00000000000000     0.00000000000000     0.00000000000000
He   2   2     8.01742894903574     0.00000000000000     0.00000000000000
He   3   2     0.00000000000000     8.01742894903574     0.00000000000000
He   4   2     8.01742894903574     8.01742894903574     0.00000000000000
He   5   2     4.00871446506924     4.00871446506924     5.66917837369519
He   6   2     4.00871446506924     4.00871446506924    -5.66917837369519
He   7   2     4.00871446506924     4.00871446506924     0.00000000000000
[GTO]
1 0
 s    3 1.00
                 38.36   0.040176075383249
                  5.77    0.26136807476949
                  1.24    0.79307123949544
 s    1 1.00
                0.2976                   1
 p    1 1.00
                 1.275                   1

2 0
 s    3 1.00
                 38.36   0.040176075383249
                  5.77    0.26136807476949
                  1.24    0.79307123949544
 s    1 1.00
                0.2976                   1
 p    1 1.00
                 1.275                   1

3 0
 s    3 1.00
                 38.36   0.040176075383249
                  5.77    0.26136807476949
                  1.24    0.79307123949544
 s    1 1.00
                0.2976                   1
 p    1 1.00
                 1.275                   1

4 0
 s    3 1.00
                 38.36   0.040176075383249
                  5.77    0.26136807476949
                  1.24    0.79307123949544
 s    1 1.00
                0.2976                   1
 p    1 1.00
                 1.275                   1

5 0
 s    3 1.00
                 38.36   0.040176075383249
                  5.77    0.26136807476949
                  1.24    0.79307123949544
 s    1 1.00
                0.2976                   1
 p    1 1.00
                 1.275                   1

6 0
 s    3 1.00
                 38.36   0.040176075383249
                  5.77    0.26136807476949
                  1.24    0.79307123949544
 s    1 1.00
                0.2976                   1
 p    1 1.00
                 1.275                   1

7 0
 s    3 1.00
                 38.36   0.040176075383249
                  5.77    0.26136807476949
                  1.24    0.79307123949544
 s    1 1.00
                0.2976                   1
 p    1 1.00
                 1.275                   1

[5d]
[7f]
[9g]

[MO]
 Sym= A
 Ene=               0
 Spin= Alpha
 Occup=    1.00000
   1       1.2178184560774
   2     -0.43557617367792
   3    -1.7555065836968e-06
   4    -1.7555065836392e-06
   5    -4.3064174560573e-17
   6    4.2364967022925e-06
   7    -7.1948971793066e-06
   8    1.6055155211343e-06
   9    -1.7554852982008e-06
  10    -2.105477432067e-18
  11    4.2364967023631e-06
  12    -7.1948971793601e-06
  13    -1.7554852982303e-06
  14    1.6055155212425e-06
  15    4.1095496380521e-17
  16    2.3733997689904e-05
  17    -4.2265177321023e-05
  18    1.7554912770698e-06
  19    1.7554912770654e-06
  20    4.0458719141743e-21
  21    4.2364962820627e-06
  22    -7.1948964270362e-06
  23    -7.4984895995771e-08
  24    -7.4984895993783e-08
  25    2.3765864905397e-06
  26    4.2364962821702e-06
  27    -7.1948964269369e-06
  28    -7.4984895994322e-08
  29    -7.4984895994311e-08
  30    -2.3765864905403e-06
  31    -0.0020975891464285
  32    0.0039104494536079
  33    -0.00017489959509878
  34    -0.00017489959509878
  35    4.7095031867339e-19
 Sym= A
 Ene=               1
 Spin= Alpha
 Occup=    1.00000
   1     -0.43557617367792
   2        1.217872718816
   3    3.282381848663e-06
   4    3.2823818485826e-06
   5    2.1646197122156e-17
   6    -7.1948972033997e-06
   7    1.0026409791624e-05
   8    -2.982441866305e-06
   9    3.2823432413851e-06
  10    1.306002749422e-18
  11    -7.1948972034057e-06
  12    1.0026409791785e-05
  13    3.2823432414748e-06
  14    -2.9824418662217e-06
  15    -3.6128365235075e-17
  16    -4.2265177369053e-05
  17    7.7431515690068e-05
  18    -3.282353695642e-06
  19    -3.2823536956366e-06
  20    -4.0876738662136e-21
  21    -7.1948964441598e-06
  22    1.0026408319413e-05
  23    1.4995070207239e-07
  24    1.4995070207085e-07
  25    -4.42987206821e-06
  26    -7.1948964440094e-06
  27    1.0026408319548e-05
  28    1.4995070207112e-07
  29    1.4995070207141e-07
  30     4.42987206821e-06
  31    0.0039105045764295
  32    -0.0078518170483046
  33    0.00034976072041079
  34    0.00034976072041078
  35    1.2197274440462e-19
 Sym= A
 Ene=               2
 Spin= Alpha
 Occup=    1.00000
   1    -1.7555065836968e-06
   2    3.282381848663e-06
   3       1.0000001405524
   4    1.4055226367821e-07
   5    1.0793671226912e-16
   6    -1.6055155394526e-06
   7    2.9824418983609e-06
   8    -1.405522586206e-07
   9    1.4055225818573e-07
  10    -1.0227752011555e-16
  11    -1.7554853247986e-06
  12    3.2823432890488e-06
  13    1.4055225805945e-07
  14    -1.4055225867135e-07
  15    2.0206109554967e-16
  16    -1.7554913217927e-06
  17    3.2823537753944e-06
  18    -1.405522532088e-07
  19    -1.4055235636338e-07
  20    -3.9651069028809e-17
  21    -1.6805004396116e-06
  22    3.1323926078972e-06
  23    5.1667466268714e-14
  24    -5.171058266765e-14
  25    -1.9877091200348e-07
  26    -1.680500439603e-06
  27    3.1323926078288e-06
  28    5.1610654671484e-14
  29    -5.1571812223034e-14
  30    1.9877091203326e-07
  31    0.00017501630019321
  32    -0.00034996861451633
  33    1.2437487639166e-08
  34    1.2828617855209e-08
  35    -1.5178830414797e-17
 Sym= A
 Ene=               3
 Spin= Alpha
 Occup=    1.00000
   1    -1.7555065836392e-06
   2    3.2823818485826e-06
   3    1.4055226366505e-07
   4       1.0000001405524
   5    1.6239525356901e-16
   6    -1.7554853246438e-06
   7    3.282343288991e-06
   8    -1.4055225903066e-07
   9    1.4055225811096e-07
  10    -1.5266567196283e-16
  11    -1.6055155394294e-06
  12    2.9824418982599e-06
  13    1.4055225826975e-07
  14    -1.405522587224e-07
  15    3.6871938529906e-17
  16    -1.7554913217887e-06
  17    3.2823537753153e-06
  18    -1.4055235623626e-07
  19    -1.4055225318968e-07
  20    1.5392594700882e-16
  21    -1.6805004395891e-06
  22    3.1323926078168e-06
  23    -5.1622927072417e-14
  24    5.1631626948336e-14
  25    -1.9877091199486e-07
  26    -1.6805004394926e-06
  27    3.1323926077345e-06
  28    -5.1700349818359e-14
  29    5.1486993445609e-14
  30    1.9877091204452e-07
  31    0.00017501630019332
  32    -0.00034996861451659
  33    1.2828617804707e-08
  34    1.243748762211e-08
  35    -1.6805133673525e-17
 Sym= A
 Ene=               4
 Spin= Alpha
 Occup=    1.00000
   1    -4.3064164412272e-17
   2    2.164619602312e-17
   3    1.2536540010042e-16
   4    1.5922932555157e-16
   5       1.0000000000001
   6    -1.19222654679e-16
   7    3.7929950822844e-17
   8    -7.1382936037728e-17
   9    -1.0776976956568e-16
  10    1.0327053838505e-13
  11    -5.6161886776498e-17
  12    2.9715071098746e-18
  13    -9.8662303642492e-17
  14    -9.865214725356e-17
  15    1.0327043620547e-13
  16     4.00303068665e-17
  17    -7.8686045455592e-17
  18    -4.8795596509937e-17
  19    -3.2757278655987e-16
  20    1.0361959948328e-13
  21    1.0604465703697e-07
  22    -2.1206231693975e-07
  23    -1.46411620001e-16
  24    -2.402117695374e-16
  25    1.2933796424624e-16
  26    -1.0604465701107e-07
  27    2.1206231690478e-07
  28    3.1312129610776e-16
  29    -2.8090006250537e-16
  30    -7.9892525363404e-17
  31    3.317672246968e-17
  32    -4.8068599073263e-17
  33    -2.1705800886908e-16
  34    -1.8366129939282e-16
  35    -3.9113014548367e-10
 Sym= A
 Ene=               5
 Spin= Alpha
 Occup=    1.00000
   1    4.2364967022823e-06
   2    -7.1948972033346e-06
   3    -1.6055155394526e-06
   4    -1.7554853246438e-06
   5    -1.192227547395e-16
   6       1.2178184560763
   7     -0.43557617367605
   8    1.7555064891983e-06
   9    -1.7555064818264e-06
  10    3.9400308504508e-17
  11    2.3733997689572e-05
  12    -4.2265177344269e-05
  13    -1.7554912952602e-06
  14    1.7554913032589e-06
  15    -3.2582578316639e-17
  16    4.2364956769536e-06
  17    -7.1948953310056e-06
  18    1.7554852046545e-06
  19    1.6055154194097e-06
  20    -1.4930340916258e-17
  21    4.2364962100238e-06
  22    -7.1948963078368e-06
  23    7.4984893568347e-08
  24    -7.4984893231199e-08
  25    2.3765864411773e-06
  26    4.2364962099023e-06
  27    -7.1948963080151e-06
  28    7.4984893591741e-08
  29    -7.4984893239213e-08
  30    -2.3765864411737e-06
  31    -0.0020975891027816
  32    0.0039104493699515
  33    0.0001748995895265
  34    -0.00017489958870426
  35    -8.660064852728e-18
 Sym= A
 Ene=               6
 Spin= Alpha
 Occup=    1.00000
   1    -7.1948971792705e-06
   2    1.0026409791562e-05
   3    2.9824418983609e-06
   4    3.282343288991e-06
   5    3.7929949862435e-17
   6     -0.43557617367605
   7       1.2178727188126
   8    -3.2823816698168e-06
   9    3.2823816562042e-06
  10    -1.3972350097623e-17
  11    -4.2265177344141e-05
  12    7.7431515689777e-05
  13    3.2823537278518e-06
  14    -3.2823537431682e-06
  15    1.4834873475004e-16
  16    -7.1948953552155e-06
  17    1.0026406360743e-05
  18    -3.2823430646247e-06
  19    -2.9824416738834e-06
  20    -2.0447705411751e-17
  21    -7.1948963008348e-06
  22    1.0026408130337e-05
  23    -1.4995069732973e-07
  24    1.4995069660936e-07
  25    -4.4298719736293e-06
  26    -7.194896301198e-06
  27    1.0026408130022e-05
  28    -1.4995069729418e-07
  29    1.4995069661425e-07
  30    4.4298719736385e-06
  31     0.003910504492771
  32    -0.0078518168749126
  33    -0.00034976070926807
  34    0.00034976070762287
  35    5.9360068943581e-18
 Sym= A
 Ene=               7
 Spin= Alpha
 Occup=    0.00000
   1    1.6055155211343e-06
   2    -2.9824418663051e-06
   3    -1.4055225861655e-07
   4    -1.4055225903413e-07
   5    -7.0845472953286e-17
   6    1.7555064891982e-06
   7    -3.2823816698168e-06
   8       1.0000001405524
   9    -1.4055225411366e-07
  10    -3.7032048300363e-16
  11    1.7554913036193e-06
  12    -3.2823537432129e-06
  13    -1.4055225325818e-07
  14    1.4055235739782e-07
  15    -6.0738252479012e-16
  16    1.7554852309453e-06
  17    -3.2823431121326e-06
  18    1.4055224933892e-07
  19    1.4055224923852e-07
  20    -2.1178931983834e-16
  21    1.6805003862902e-06
  22    -3.1323925081426e-06
  23    5.1536854990924e-14
  24    5.1487336967319e-14
  25    1.9877090580858e-07
  26    1.6805003861845e-06
  27    -3.1323925081408e-06
  28    5.1452115838909e-14
  29    5.1559763218208e-14
  30    -1.9877090574912e-07
  31    -0.00017501629462071
  32    0.00034996860337275
  33    1.2437486365707e-08
  34    -1.2828616673762e-08
  35                     0
 Sym= A
 Ene=               8
 Spin= Alpha
 Occup=    0.00000
   1    -1.7554852982008e-06
   2    3.2823432413851e-06
   3    1.4055225818598e-07
   4    1.405522581195e-07
   5    -1.2186055101988e-16
   6    -1.7555064818263e-06
   7    3.2823816562042e-06
   8    -1.4055225408529e-07
   9       1.0000001405524
  10    -1.0935993156566e-16
  11    -1.755491295429e-06
  12    3.2823537279893e-06
  13    1.4055235618771e-07
  14    -1.4055225366479e-07
  15    -2.0363202635286e-16
  16    -1.6055154376905e-06
  17    2.9824417058943e-06
  18    -1.4055224836364e-07
  19    -1.4055224873473e-07
  20    -2.0147779233524e-16
  21    -1.6805003781586e-06
  22    3.1323924934998e-06
  23    5.1669621018525e-14
  24    5.1647242901771e-14
  25    -1.9877090482245e-07
  26    -1.6805003781042e-06
  27    3.1323924932768e-06
  28    5.1867259643082e-14
  29    5.1622106961591e-14
  30    1.9877090481407e-07
  31    0.00017501629379575
  32    -0.00034996860172312
  33    -1.2828616493819e-08
  34    1.2437486648579e-08
  35    -1.3877787807814e-17
 Sym= A
 Ene=               9
 Spin= Alpha
 Occup=    0.00000
   1    -2.1054695024095e-18
   2    1.3060027404641e-18
   3    -1.302444641208e-16
   4    -1.5199354259051e-16
   5    1.0331081991701e-13
   6    3.9400396705265e-17
   7    -1.3972347762068e-17
   8    -3.7942833648934e-16
   9    -1.1646011545162e-16
  10       1.0000000000001
  11    1.7244786915208e-18
  12    -1.0433156846131e-18
  13    3.1881863630167e-16
  14    -7.7927804161424e-17
  15    1.0286836047848e-13
  16    1.1937783919509e-18
  17    5.625720380054e-18
  18    3.9339611733346e-16
  19    -5.4827202032076e-17
  20    1.0347494934313e-13
  21    1.0604465300347e-07
  22    -2.1206230903786e-07
  23    1.1425591856429e-16
  24    1.7096463886149e-16
  25    1.6104358502247e-16
  26    -1.0604465303053e-07
  27    2.120623090453e-07
  28    -1.9439366609784e-16
  29    2.6224244668112e-16
  30    -6.8791566978522e-17
  31    1.1794957173266e-18
  32    3.7532690311176e-17
  33    3.4954994061013e-17
  34    6.0695681405719e-17
  35    -3.9113022441359e-10
 Sym= A
 Ene=              10
 Spin= Alpha
 Occup=    0.00000
   1    4.2364967023597e-06
   2    -7.1948972033963e-06
   3    -1.7554853247986e-06
   4    -1.6055155394294e-06
   5    -5.6161791021354e-17
   6    2.3733997689593e-05
   7    -4.2265177344139e-05
   8    1.7554913036193e-06
   9    -1.755491295429e-06
  10    1.7247743451559e-18
  11       1.2178184560763
  12     -0.43557617367605
  13    -1.7555064819305e-06
  14    1.7555064895479e-06
  15    1.4265825633555e-18
  16    4.2364956769129e-06
  17    -7.194895331102e-06
  18    1.6055154194829e-06
  19    1.755485204696e-06
  20    3.0533108294204e-17
  21    4.236496209886e-06
  22    -7.194896308169e-06
  23    -7.4984893242227e-08
  24    7.4984893588862e-08
  25    2.3765864411667e-06
  26    4.236496209827e-06
  27    -7.1948963078477e-06
  28    -7.4984893264016e-08
  29    7.4984893573613e-08
  30    -2.3765864411771e-06
  31    -0.0020975891027818
  32    0.0039104493699523
  33    -0.00017489958870424
  34    0.00017489958952657
  35    2.5343225781849e-18
 Sym= A
 Ene=              11
 Spin= Alpha
 Occup=    0.00000
   1    -7.1948971793463e-06
   2    1.002640979177e-05
   3    3.2823432890488e-06
   4    2.9824418982599e-06
   5    2.971508092669e-18
   6    -4.2265177344238e-05
   7    7.7431515689789e-05
   8    -3.2823537432129e-06
   9    3.2823537279893e-06
  10    -1.0433133266727e-18
  11     -0.43557617367605
  12       1.2178727188126
  13    3.2823816562642e-06
  14    -3.282381669959e-06
  15    -1.5808469270162e-16
  16    -7.1948953551109e-06
  17    1.0026406360527e-05
  18    -2.982441673815e-06
  19    -3.2823430645636e-06
  20    -1.4939143736991e-18
  21    -7.1948963011466e-06
  22    1.0026408130046e-05
  23    1.4995069662452e-07
  24    -1.4995069729539e-07
  25    -4.4298719735825e-06
  26    -7.1948963006493e-06
  27    1.0026408130098e-05
  28    1.4995069661149e-07
  29    -1.4995069731303e-07
  30    4.4298719735812e-06
  31    0.0039105044927719
  32    -0.0078518168749128
  33    0.00034976070762294
  34    -0.00034976070926804
  35    1.6805133673525e-18
 Sym= A
 Ene=              12
 Spin= Alpha
 Occup=    0.00000
   1    -1.7554852982302e-06
   2    3.2823432414748e-06
   3     1.40552258025e-07
   4    1.405522582932e-07
   5    -1.0461636164399e-16
   6    -1.7554912952602e-06
   7    3.2823537278517e-06
   8    -1.4055225329663e-07
   9    1.4055235622553e-07
  10    3.3111147312786e-16
  11    -1.7555064819305e-06
  12    3.2823816562642e-06
  13       1.0000001405524
  14    -1.4055225360643e-07
  15    2.2703188987087e-16
  16    -1.6055154376825e-06
  17    2.9824417059638e-06
  18    -1.4055224851998e-07
  19    -1.4055224851704e-07
  20    -1.2147846871018e-16
  21    -1.6805003780249e-06
  22    3.1323924932373e-06
  23    5.1484378992883e-14
  24    5.1693543625393e-14
  25    -1.9877090482175e-07
  26    -1.6805003782923e-06
  27    3.1323924934441e-06
  28    5.185827697493e-14
  29    5.1602224190023e-14
  30    1.9877090483446e-07
  31    0.00017501629379575
  32    -0.0003499686017231
  33    1.2437486506849e-08
  34    -1.2828616356095e-08
  35    1.5959455978987e-16
 Sym= A
 Ene=              13
 Spin= Alpha
 Occup=    0.00000
   1    1.6055155212425e-06
   2    -2.9824418662217e-06
   3    -1.4055225870545e-07
   4    -1.4055225872102e-07
   5    -1.0053655167195e-16
   6    1.7554913032589e-06
   7    -3.2823537431682e-06
   8    1.4055235737744e-07
   9    -1.4055225368545e-07
  10    -7.1523249067672e-17
  11    1.7555064895479e-06
  12    -3.282381669959e-06
  13    -1.4055225359585e-07
  14       1.0000001405524
  15    5.9014139715681e-17
  16    1.7554852311941e-06
  17    -3.2823431121662e-06
  18    1.4055224907168e-07
  19    1.4055224916211e-07
  20    -1.5986450443446e-16
  21    1.6805003859828e-06
  22    -3.1323925082225e-06
  23    5.1297252752848e-14
  24    5.1713771386444e-14
  25    1.9877090558875e-07
  26    1.6805003861846e-06
  27    -3.1323925080119e-06
  28    5.1602251966977e-14
  29    5.1612579573099e-14
  30    -1.9877090543509e-07
  31    -0.00017501629462071
  32    0.00034996860337278
  33    -1.2828616635419e-08
  34    1.2437486305723e-08
  35    2.0816681711722e-17
 Sym= A
 Ene=              14
 Spin= Alpha
 Occup=    0.00000
   1    4.1095504533532e-17
   2    -3.612836667504e-17
   3    2.0090226654388e-16
   4    3.8110774040577e-17
   5    1.0321967203267e-13
   6    -3.2582199492615e-17
   7    1.4834873654128e-16
   8    -5.9265518700627e-16
   9    -1.9683715432792e-16
  10    1.0286909248762e-13
  11     1.42620804469e-18
  12    -1.5808469782397e-16
  13    2.0130479475544e-16
  14    6.6884111373152e-17
  15       1.0000000000001
  16    -2.7608403323615e-17
  17    2.6142072658223e-17
  18    4.6389032326532e-16
  19    -6.5115085857052e-16
  20    1.0347505404522e-13
  21    1.0604465328396e-07
  22    -2.1206230920318e-07
  23    -1.5169349550707e-16
  24    -1.3861465146324e-16
  25    2.2818251187498e-16
  26    -1.0604465328511e-07
  27    2.1206230922692e-07
  28    -2.537242833626e-16
  29    3.7117160300685e-16
  30    -1.4725779248178e-16
  31    -4.687565097203e-18
  32    -2.0985501186722e-17
  33    1.0787994497547e-16
  34    -1.6831319939883e-16
  35    -3.9113000994484e-10
 Sym= A
 Ene=              15
 Spin= Alpha
 Occup=    0.00000
   1    2.3733997689857e-05
   2    -4.2265177369059e-05
   3    -1.7554913217926e-06
   4    -1.7554913217887e-06
   5    4.0030329197986e-17
   6    4.2364956769799e-06
   7    -7.1948953552423e-06
   8    1.7554852309452e-06
   9    -1.6055154376905e-06
  10    1.1937769980968e-18
  11    4.2364956769186e-06
  12    -7.1948953550807e-06
  13    -1.6055154376825e-06
  14    1.7554852311941e-06
  15    -2.7608432618256e-17
  16       1.2178184560753
  17     -0.43557617367419
  18    1.7555063873516e-06
  19    1.7555063873637e-06
  20    -3.5249307469384e-17
  21    4.2364961381601e-06
  22    -7.1948961896156e-06
  23    7.4984890902438e-08
  24    7.4984890872748e-08
  25    2.3765863918046e-06
  26    4.2364961380525e-06
  27    -7.1948961896343e-06
  28    7.4984890886167e-08
  29    7.4984890855795e-08
  30    -2.3765863918066e-06
  31    -0.0020975890591335
  32    0.0039104492862911
  33    0.00017489958313206
  34    0.00017489958313203
  35    -1.5348237004248e-18
 Sym= A
 Ene=              16
 Spin= Alpha
 Occup=    0.00000
   1    -4.2265177320985e-05
   2    7.743151569012e-05
   3    3.2823537753944e-06
   4    3.2823537753153e-06
   5    -7.8686046414866e-17
   6    -7.1948953310122e-06
   7    1.0026406360725e-05
   8    -3.2823431121326e-06
   9    2.9824417058943e-06
  10    5.6257205108576e-18
  11    -7.1948953310876e-06
  12    1.002640636049e-05
  13    2.9824417059639e-06
  14    -3.2823431121662e-06
  15    2.614207135802e-17
  16     -0.43557617367419
  17       1.2178727188091
  18    -3.2823814774896e-06
  19    -3.2823814775033e-06
  20    2.1806273470423e-17
  21    -7.19489615852e-06
  22    1.0026407941471e-05
  23    -1.4995069179406e-07
  24    -1.4995069183422e-07
  25    -4.4298718790172e-06
  26    -7.1948961585223e-06
  27    1.0026407941329e-05
  28    -1.4995069179226e-07
  29    -1.4995069180663e-07
  30    4.4298718790148e-06
  31    0.0039105044091086
  32    -0.0078518167015194
  33    -0.00034976069648032
  34    -0.00034976069648021
  35    -3.4016843161733e-18
 Sym= A
 Ene=              17
 Spin= Alpha
 Occup=    0.00000
   1    1.7554912770698e-06
   2    -3.282353695642e-06
   3    -1.4055225319291e-07
   4    -1.4055235624882e-07
   5    -2.6765834511606e-17
   6    1.7554852046545e-06
   7    -3.2823430646247e-06
   8    1.4055224931558e-07
   9    -1.405522483498e-07
  10    3.9151388729295e-16
  11    1.6055154194829e-06
  12    -2.982441673815e-06
  13    -1.4055224851348e-07
  14    1.4055224906262e-07
  15    4.6152576222362e-16
  16    1.7555063873517e-06
  17    -3.2823814774896e-06
  18       1.0000001405523
  19    1.4055224472992e-07
  20    1.0283259718984e-16
  21    1.6805003248611e-06
  22    -3.132392393744e-06
  23    5.1953563361639e-14
  24    -5.1540177793966e-14
  25    1.9877089854447e-07
  26    1.6805003244877e-06
  27    -3.1323923934775e-06
  28    5.1890733211785e-14
  29    -5.1646564921782e-14
  30    -1.9877089853048e-07
  31    -0.000175016288223
  32    0.00034996859057937
  33    1.2437485018042e-08
  34    1.2828615090839e-08
  35    -1.0668549377257e-16
 Sym= A
 Ene=              18
 Spin= Alpha
 Occup=    0.00000
   1    1.7554912770654e-06
   2    -3.2823536956366e-06
   3    -1.4055235634992e-07
   4    -1.4055225321857e-07
   5    -3.5395516746031e-16
   6    1.6055154194097e-06
   7    -2.9824416738834e-06
   8    1.4055224922145e-07
   9    -1.4055224870505e-07
  10    -5.5198199261044e-17
  11    1.755485204696e-06
  12    -3.2823430645635e-06
  13    -1.4055224852676e-07
  14    1.405522491851e-07
  15    -6.5193691657053e-16
  16    1.7555063873637e-06
  17    -3.2823814775033e-06
  18    1.4055224467196e-07
  19       1.0000001405523
  20    -2.1325988284821e-16
  21    1.680500324559e-06
  22    -3.1323923935465e-06
  23    -5.1990969715848e-14
  24    5.1703731972057e-14
  25    1.9877089830536e-07
  26    1.6805003247992e-06
  27    -3.1323923936761e-06
  28    -5.174129278276e-14
  29    5.1761098853042e-14
  30    -1.987708984173e-07
  31    -0.00017501628822302
  32    0.00034996859057934
  33    1.2828614964669e-08
  34    1.2437485016046e-08
  35    1.4555414165618e-16
 Sym= A
 Ene=              19
 Spin= Alpha
 Occup=    0.00000
   1    4.0631964387939e-21
   2    -4.0882141229068e-21
   3    -3.8512557724189e-17
   4    1.5817772592883e-16
   5    1.0363527136525e-13
   6    -1.4930242217488e-17
   7    -2.0447705813076e-17
   8    -2.2124354429146e-16
   9    -2.1010184695663e-16
  10    1.0347744474746e-13
  11    3.0533013900792e-17
  12    -1.4939139947593e-18
  13    -1.2110725031313e-16
  14    -1.8660383787599e-16
  15    1.0350126617292e-13
  16    -3.5249315470397e-17
  17    2.1806273870918e-17
  18    1.0636963878799e-16
  19    -2.0046875320101e-16
  20       1.0000000000001
  21    1.0604464933471e-07
  22    -2.1206230137992e-07
  23    1.459322383028e-16
  24    2.1957180825165e-16
  25    1.5988721629761e-16
  26    -1.0604464931821e-07
  27    2.1206230137725e-07
  28    -3.3064051345009e-17
  29    1.3349468447492e-16
  30    -3.5366223523208e-17
  31    5.1835172622964e-18
  32    1.514746426378e-17
  33    -2.577925579668e-17
  34    3.2999601118896e-17
  35    -3.9112994738638e-10
 Sym= A
 Ene=              20
 Spin= Alpha
 Occup=    0.00000
   1    4.2364962820756e-06
   2    -7.1948964441549e-06
   3    -1.6805004396116e-06
   4    -1.6805004395891e-06
   5    1.0604465703697e-07
   6    4.2364962099914e-06
   7    -7.194896300865e-06
   8    1.6805003862902e-06
   9    -1.6805003781586e-06
  10    1.0604465300347e-07
  11    4.2364962098607e-06
  12    -7.1948963011128e-06
  13    -1.6805003780249e-06
  14    1.6805003859829e-06
  15    1.0604465328396e-07
  16    4.236496138136e-06
  17    -7.194896158532e-06
  18    1.6805003248611e-06
  19    1.680500324559e-06
  20    1.0604464933471e-07
  21       1.2178184560766
  22     -0.43557617367659
  23    -4.1811876915058e-16
  24    -4.8026128534555e-16
  25    2.4826611208736e-06
  26    2.373399798284e-05
  27    -4.2265177872689e-05
  28    6.6573705498129e-17
  29    2.6156531947257e-17
  30    -2.4826396441194e-06
  31    -0.0020975891153571
  32    0.0039104493940551
  33    -4.2229327845453e-16
  34    -4.7284501799325e-16
  35    0.00024734537341719
 Sym= A
 Ene=              21
 Spin= Alpha
 Occup=    0.00000
   1    -7.1948964270188e-06
   2    1.0026408319415e-05
   3    3.1323926078972e-06
   4    3.1323926078168e-06
   5    -2.1206231693975e-07
   6    -7.1948963078092e-06
   7    1.0026408130353e-05
   8    -3.1323925081426e-06
   9    3.1323924934998e-06
  10    -2.1206230903786e-07
  11    -7.1948963081483e-06
  12    1.0026408130042e-05
  13    3.1323924932373e-06
  14    -3.1323925082225e-06
  15    -2.1206230920318e-07
  16    -7.1948961896005e-06
  17    1.0026407941463e-05
  18    -3.132392393744e-06
  19    -3.1323923935465e-06
  20    -2.1206230137992e-07
  21     -0.43557617367659
  22       1.2178727188136
  23    9.3174335499036e-16
  24    9.0748794645361e-16
  25    -4.6419887405043e-06
  26    -4.2265177872862e-05
  27    7.7431516671168e-05
  28    -1.0122871911564e-17
  29    -9.1760656547038e-18
  30    4.6419492444798e-06
  31     0.003910504516875
  32    -0.0078518169248698
  33    7.8034885610199e-16
  34    6.6878447551672e-16
  35    -0.00049463634234184
 Sym= A
 Ene=              22
 Spin= Alpha
 Occup=    0.00000
   1    -7.4984895995769e-08
   2    1.4995070207239e-07
   3    5.1676509562631e-14
   4    -5.1616994589742e-14
   5    -1.3468321423311e-16
   6    7.4984893568346e-08
   7    -1.4995069732973e-07
   8    5.1509318857493e-14
   9    5.1681125685385e-14
  10    1.3501610987866e-16
  11    -7.4984893242227e-08
  12    1.4995069662452e-07
  13    5.1522935045658e-14
  14    5.1299042933023e-14
  15    -1.418301426516e-16
  16    7.4984890902437e-08
  17    -1.4995069179406e-07
  18    5.1950458501567e-14
  19    -5.1953841237136e-14
  20    1.486761851627e-16
  21    -4.1811879386858e-16
  22    9.3174335092668e-16
  23       1.0000000000001
  24    -2.131019474764e-16
  25    1.3406680220421e-17
  26    -7.046445675955e-17
  27    -9.3758940586542e-18
  28    1.0313813032899e-13
  29    -1.6641114713392e-16
  30    -2.0041696007099e-16
  31    7.3593432072292e-17
  32    -1.535459244348e-16
  33    -3.9113014610746e-10
  34    2.9010528109902e-17
  35    -3.8706017557733e-17
 Sym= A
 Ene=              23
 Spin= Alpha
 Occup=    0.00000
   1    -7.4984895993784e-08
   2    1.4995070207085e-07
   3    -5.1709030953922e-14
   4    5.1639591827414e-14
   5    -2.1920764326295e-16
   6    -7.49848932312e-08
   7    1.4995069660936e-07
   8    5.1477074206401e-14
   9    5.1670066369653e-14
  10    1.662792357594e-16
  11    7.4984893588862e-08
  12    -1.4995069729539e-07
  13    5.1685722832175e-14
  14    5.1725501020402e-14
  15    -1.2843403130629e-16
  16    7.4984890872748e-08
  17    -1.4995069183422e-07
  18    -5.1540843359774e-14
  19    5.1696923140843e-14
  20    1.9814295149015e-16
  21    -4.802613015056e-16
  22    9.0748794788522e-16
  23    -2.1298101276136e-16
  24       1.0000000000001
  25    -3.9220622148406e-18
  26    -1.5616070110351e-17
  27    3.4464378421888e-17
  28    -5.2900757916261e-17
  29    1.0326293517081e-13
  30    2.0524332112692e-17
  31    7.1435880250487e-17
  32    -1.3971038881095e-16
  33    -3.4064084786381e-17
  34    -3.9113014198396e-10
  35    1.0516761073109e-17
 Sym= A
 Ene=              24
 Spin= Alpha
 Occup=    0.00000
   1    2.3765864905397e-06
   2    -4.4298720682099e-06
   3    -1.9877091196566e-07
   4    -1.9877091201359e-07
   5    1.2001512089737e-16
   6    2.3765864411773e-06
   7    -4.4298719736293e-06
   8    1.9877090581131e-07
   9     -1.9877090482e-07
  10    1.492544476132e-16
  11    2.3765864411667e-06
  12    -4.4298719735825e-06
  13    -1.987709048072e-07
  14    1.9877090559763e-07
  15    2.1726870231148e-16
  16    2.3765863918046e-06
  17    -4.4298718790172e-06
  18    1.9877089854326e-07
  19    1.9877089832822e-07
  20    1.6638182517171e-16
  21    2.4826611208737e-06
  22    -4.6419887405042e-06
  23    2.6153950165685e-17
  24    -6.641700293478e-18
  25       1.0000002811046
  26    2.4826396441483e-06
  27    -4.6419492445204e-06
  28     9.48923915992e-17
  29    -2.5034081625568e-17
  30    -2.8110461506609e-07
  31    -0.0002475104193439
  32    0.00049493034900402
  33    -2.1266972090012e-16
  34    -2.0735994339372e-16
  35    2.5266103562648e-08
 Sym= A
 Ene=              25
 Spin= Alpha
 Occup=    0.00000
   1    4.2364962821628e-06
   2    -7.194896444004e-06
   3    -1.680500439603e-06
   4    -1.6805004394926e-06
   5    -1.0604465701107e-07
   6    4.2364962098982e-06
   7    -7.1948963012068e-06
   8    1.6805003861845e-06
   9    -1.6805003781043e-06
  10    -1.0604465303054e-07
  11    4.2364962098161e-06
  12    -7.1948963006427e-06
  13    -1.6805003782923e-06
  14    1.6805003861846e-06
  15    -1.0604465328511e-07
  16    4.2364961380428e-06
  17    -7.194896158513e-06
  18    1.6805003244878e-06
  19    1.6805003247992e-06
  20    -1.0604464931821e-07
  21    2.3733997982869e-05
  22    -4.2265177872887e-05
  23    -7.0464480927813e-17
  24    -1.5616088154607e-17
  25    2.4826396441484e-06
  26       1.2178184560766
  27     -0.43557617367659
  28    -5.3423925414165e-16
  29    -4.6932374603011e-16
  30    -2.4826611208971e-06
  31    -0.0020975891153571
  32     0.003910449394055
  33    -4.5290897462037e-16
  34    -4.0922848077497e-16
  35    -0.00024734537341719
 Sym= A
 Ene=              26
 Spin= Alpha
 Occup=    0.00000
   1    -7.1948964269272e-06
   2    1.002640831955e-05
   3    3.1323926078288e-06
   4    3.1323926077345e-06
   5    2.1206231690478e-07