[Molden Format]
made by pyscf v[2.0.1]
[Atoms] (AU)
He   1   2     2.60931777012738     4.51947088923593     0.70746716274711
He   2   2    -2.60931777012738    -4.51947088923593    -0.70746716274711
He   3   2     2.60931777012738    -4.51947088923593     0.70746716274711
He   4   2     5.21863554025476     0.00000000000000    -0.70746716274711
He   5   2    -2.60931777012738     4.51947088923593    -0.70746716274711
He   6   2    -5.21863554025476     0.00000000000000     0.70746716274711
He   7   2     0.00000000000000     0.00000000000000     2.78558858843762
He   8   2     0.00000000000000     0.00000000000000    -2.78558858843762
[GTO]
1 0
 s    3 1.00
                 38.36   0.040176075383249
                  5.77    0.26136807476949
                  1.24    0.79307123949544
 s    1 1.00
                0.2976                   1
 p    1 1.00
                 1.275                   1

2 0
 s    3 1.00
                 38.36   0.040176075383249
                  5.77    0.26136807476949
                  1.24    0.79307123949544
 s    1 1.00
                0.2976                   1
 p    1 1.00
                 1.275                   1

3 0
 s    3 1.00
                 38.36   0.040176075383249
                  5.77    0.26136807476949
                  1.24    0.79307123949544
 s    1 1.00
                0.2976                   1
 p    1 1.00
                 1.275                   1

4 0
 s    3 1.00
                 38.36   0.040176075383249
                  5.77    0.26136807476949
                  1.24    0.79307123949544
 s    1 1.00
                0.2976                   1
 p    1 1.00
                 1.275                   1

5 0
 s    3 1.00
                 38.36   0.040176075383249
                  5.77    0.26136807476949
                  1.24    0.79307123949544
 s    1 1.00
                0.2976                   1
 p    1 1.00
                 1.275                   1

6 0
 s    3 1.00
                 38.36   0.040176075383249
                  5.77    0.26136807476949
                  1.24    0.79307123949544
 s    1 1.00
                0.2976                   1
 p    1 1.00
                 1.275                   1

7 0
 s    3 1.00
                 38.36   0.040176075383249
                  5.77    0.26136807476949
                  1.24    0.79307123949544
 s    1 1.00
                0.2976                   1
 p    1 1.00
                 1.275                   1

8 0
 s    3 1.00
                 38.36   0.040176075383249
                  5.77    0.26136807476949
                  1.24    0.79307123949544
 s    1 1.00
                0.2976                   1
 p    1 1.00
                 1.275                   1

[5d]
[7f]
[9g]

[MO]
 Sym= A
 Ene=               0
 Spin= Alpha
 Occup=    1.00000
   1       1.2179674051524
   2     -0.43588953985172
   3    5.8071852697485e-06
   4    1.0058342825804e-05
   5    3.1901884806607e-06
   6    1.8464440928488e-05
   7    -4.0948929996582e-05
   8    5.1212134734681e-08
   9    8.8702011317184e-08
  10    -1.0692688562714e-07
  11    0.00011212670128145
  12    -0.00023853724315956
  13    -5.2853209577051e-09
  14    4.5988278229084e-07
  15    2.0555353332486e-08
  16    -0.0047034780707685
  17     0.010344112842263
  18    -0.00016243692474822
  19    0.00028201903137619
  20    8.8057548065469e-05
  21    -0.0047034777325531
  22     0.010344112089377
  23    0.00032545407285537
  24    3.3501423485367e-07
  25    8.805753767786e-05
  26    0.00011212669283508
  27    -0.00023853722533362
  28    4.0091282136972e-07
  29    2.2536420402687e-07
  30    2.0555332997647e-08
  31    -0.0034641668389722
  32    0.0076023615954334
  33    0.00010053639165686
  34    0.00017413413606307
  35    -7.9942983776623e-05
  36    -0.0010847316155058
  37    0.0024037194985916
  38    2.1971773613121e-05
  39    3.8056227771282e-05
  40    2.9717548314116e-05
 Sym= A
 Ene=               1
 Spin= Alpha
 Occup=    1.00000
   1     -0.43574315018017
   2       1.2181737089012
   3    -8.2193355146196e-06
   4    -1.4236310924766e-05
   5    -4.5652874216317e-06
   6    -1.5242220718628e-05
   7    3.3352752712749e-05
   8    -5.5634019089165e-08
   9    -9.63609408057e-08
  10    6.2622781653569e-08
  11    -9.9001482209511e-05
  12    0.00021594300820447
  13    -3.3642171406969e-07
  14    -1.443810421208e-06
  15    1.1904498868433e-07
  16    0.0013400309075507
  17    -0.010322124366739
  18    -0.0001156294356115
  19    0.00019941233034565
  20    6.2637944750866e-05
  21      0.00134003074666
  22    -0.010322123501674
  23    0.00023051084743264
  24    -4.3186209457454e-07
  25     6.26379402181e-05
  26    -9.9001474236928e-05
  27    0.00021594299092956
  28    -1.0821655443369e-06
  29    -1.0132548716975e-06
  30    1.1904498759509e-07
  31    0.00077470937767791
  32    -0.0072494201208834
  33    8.2064451292062e-05
  34    0.00014213979712094
  35    -6.5539742202531e-05
  36    -8.6835259161285e-05
  37    -0.0019412766168788
  38    1.7479298776098e-05
  39    3.0275033120421e-05
  40    2.2790753119283e-05
 Sym= A
 Ene=               2
 Spin= Alpha
 Occup=    1.00000
   1    8.1906878723613e-06
   2    -1.9158956509607e-05
   3       1.0000018798867
   4    -4.1617176781646e-07
   5    1.0290410875304e-07
   6    1.8551063567525e-06
   7    -3.0723586897076e-06
   8    -5.4911528880797e-08
   9    -1.6173212593681e-08
  10    -2.6775447024108e-08
  11    -7.9458007075097e-06
  12    1.3498355209102e-05
  13    4.6648214166729e-07
  14    4.1510309159823e-07
  15    -2.8006306342251e-07
  16     0.000562085579596
  17    -0.0011897241173769
  18    -7.6182895018423e-08
  19    5.6033306723032e-08
  20    2.0928394772208e-09
  21    -0.0011197754239954
  22    0.0023711947718889
  23    1.1126433147743e-07
  24    1.963850797511e-07
  25    2.7885746609015e-10
  26    3.3258263900725e-05
  27    -5.5974365607332e-05
  28    -9.3216060558027e-07
  29    -1.2245786960496e-06
  30    2.9240395294652e-07
  31    -0.00031567292189099
  32    0.00069022922487679
  33    2.2037677393945e-07
  34    -8.3618428345108e-08
  35    7.6139101795104e-08
  36    -2.593169761581e-05
  37    8.136151696404e-05
  38    8.8392902034562e-07
  39    -7.4468323023745e-07
  40    -4.3686047457094e-07
 Sym= A
 Ene=               3
 Spin= Alpha
 Occup=    1.00000
   1    1.418669160463e-05
   2    -3.3184295521493e-05
   3    -4.1617176781225e-07
   4       1.0000013993333
   5    1.7823532323836e-07
   6    3.2131383264174e-06
   7    -5.3214811371825e-06
   8    -1.6173211385143e-08
   9    -7.3586742544823e-08
  10    -4.6376433958788e-08
  11    3.3815829329299e-05
  12    -5.6840358259463e-05
  13    -4.1707205287513e-07
  14    -1.3995117775232e-06
  15    1.7594457150571e-07
  16    -0.00096848518626432
  17     0.002051132664569
  18    8.8162325765761e-08
  19    2.569982300396e-07
  20    1.5303186415076e-09
  21    2.5377914900547e-06
  22    -4.7649632475943e-06
  23    1.6425605969565e-07
  24    6.9550936089953e-08
  25    2.5776061534158e-09
  26    1.0026648692892e-05
  27    -1.6730259371787e-05
  28    -3.9240369895473e-07
  29    -8.6893395621778e-10
  30    -1.5456942187366e-07
  31    -0.00054676153172796
  32    0.0011955120698067
  33    -8.3618421944422e-08
  34    1.2382255047801e-07
  35    1.3187678130215e-07
  36    -4.4915015428274e-05
  37    0.00014092227654857
  38    -7.4468325481476e-07
  39    2.4042869261175e-08
  40    -7.5666454514545e-07
 Sym= A
 Ene=               4
 Spin= Alpha
 Occup=    1.00000
   1    4.492802268695e-06
   2    -1.0475393187993e-05
   3    1.0294131183372e-07
   4    1.7829976088044e-07
   5       1.0000002850396
   6    -6.9988616831279e-07
   7    9.6691452281411e-07
   8    1.6639026507271e-08
   9    2.8819638482512e-08
  10    3.5707235912466e-08
  11    3.1676040238768e-06
  12    -5.4158431712379e-06
  13    -2.8050412314782e-07
  14    -1.8069289707725e-07
  15    1.8114812198049e-07
  16    -0.00030490063787304
  17    0.00064476386743803
  18    -2.3590848853048e-08
  19    8.100418247998e-08
  20    4.4215061735792e-08
  21    -0.00030490059692675
  22    0.00064476378498806
  23    8.1947094692376e-08
  24    2.0071812528681e-08
  25    4.4215064780339e-08
  26    3.1676033711557e-06
  27    -5.4158421089127e-06
  28    -1.6232569817371e-08
  29    -3.3327008951216e-07
  30    1.811480975321e-07
  31    0.0002579148492133
  32    -0.00056055481679058
  33    -8.7851962715559e-09
  34    -1.5216408028351e-08
  35    2.8299389977546e-08
  36    -5.0081183393232e-05
  37    0.00013457582226792
  38    -1.1497265767685e-07
  39    -1.991384687363e-07
  40    1.8368221235861e-08
 Sym= A
 Ene=               5
 Spin= Alpha
 Occup=    1.00000
   1    1.8464440928639e-05
   2    -4.0948929996838e-05
   3    -5.1212134621347e-08
   4    -8.8702011311015e-08
   5    1.0692688555349e-07
   6       1.2179674051524
   7     -0.43588953985162
   8    -5.8071852709698e-06
   9    -1.0058342824236e-05
  10    -3.1901884810087e-06
  11    -0.0047034777325489
  12     0.010344112089372
  13    -0.00032545407285537
  14    -3.3501423488443e-07
  15    -8.805753767791e-05
  16    0.00011212669284247
  17    -0.00023853722532852
  18    -4.0091282141993e-07
  19    -2.253642040278e-07
  20    -2.0555332964231e-08
  21    0.00011212670128903
  22    -0.00023853724315444
  23    5.2853207755881e-09
  24    -4.5988278232362e-07
  25    -2.0555353453561e-08
  26    -0.0047034780707644
  27     0.010344112842259
  28    0.00016243692474823
  29    -0.00028201903137613
  30    -8.80575480655e-05
  31    -0.0010847316155291
  32    0.0024037194985779
  33    -2.1971773613106e-05
  34    -3.8056227771235e-05
  35    -2.9717548314117e-05
  36    -0.0034641668389576
  37    0.0076023615954235
  38    -0.00010053639165677
  39    -0.00017413413606287
  40    7.9942983776519e-05
 Sym= A
 Ene=               6
 Spin= Alpha
 Occup=    1.00000
   1    -1.524222071862e-05
   2    3.3352752712856e-05
   3    5.5634018980482e-08
   4    9.636094082992e-08
   5    -6.262278160379e-08
   6     -0.43574315018024
   7       1.2181737089012
   8    8.2193355136007e-06
   9    1.4236310925101e-05
  10    4.5652874215845e-06
  11    0.0013400307466566
  12    -0.010322123501671
  13    -0.00023051084743265
  14    4.3186209463268e-07
  15    -6.2637940218067e-05
  16    -9.9001474232241e-05
  17    0.00021594299093688
  18    1.0821655443708e-06
  19    1.0132548716223e-06
  20    -1.1904498762666e-07
  21    -9.9001482204538e-05
  22    0.00021594300821207
  23    3.3642171414176e-07
  24    1.4438104211729e-06
  25    -1.1904498863391e-07
  26    0.0013400309075473
  27    -0.010322124366735
  28    0.00011562943561152
  29    -0.0001994123303457
  30    -6.2637944750869e-05
  31    -8.6835259174923e-05
  32    -0.0019412766169028
  33    -1.7479298775911e-05
  34    -3.0275033120091e-05
  35    -2.2790753118985e-05
  36    0.00077470937766846
  37    -0.0072494201208679
  38    -8.2064451292237e-05
  39    -0.00014213979712124
  40    6.5539742202693e-05
 Sym= A
 Ene=               7
 Spin= Alpha
 Occup=    1.00000
   1    -1.8551063565769e-06
   2    3.0723586895444e-06
   3    -5.4911528889761e-08
   4    -1.6173212619554e-08
   5    -2.6775447044414e-08
   6    -8.1906878709467e-06
   7    1.9158956510178e-05
   8       1.0000018798867
   9    -4.1617176782577e-07
  10    1.0290410882241e-07
  11    0.0011197754239954
  12    -0.0023711947718891
  13    1.1126433097704e-07
  14    1.963850801154e-07
  15    2.7885737975007e-10
  16    -3.3258263900814e-05
  17    5.5974365607553e-05
  18    -9.3216060561198e-07
  19    -1.2245786963878e-06
  20    2.9240395248311e-07
  21    7.9458007074833e-06
  22    -1.3498355209371e-05
  23    4.6648214202716e-07
  24    4.1510309197377e-07
  25    -2.8006306381554e-07
  26    -0.00056208557959646
  27    0.0011897241173776
  28    -7.6182894755358e-08
  29    5.6033306161738e-08
  30    2.0928394111403e-09
  31    2.5931697615661e-05
  32    -8.1361516964079e-05
  33    8.8392902036601e-07
  34    -7.446832300474e-07
  35    -4.3686047436032e-07
  36    0.0003156729218908
  37    -0.00069022922487655
  38    2.2037677382646e-07
  39    -8.3618428650276e-08
  40    7.6139101960897e-08
 Sym= A
 Ene=               8
 Spin= Alpha
 Occup=    0.00000
   1    -3.2131383264828e-06
   2    5.3214811373015e-06
   3    -1.6173211357062e-08
   4    -7.3586742539717e-08
   5    -4.6376433748986e-08
   6    -1.4186691605902e-05
   7    3.3184295521191e-05
   8    -4.1617176778489e-07
   9       1.0000013993333
  10    1.7823532316009e-07
  11    -2.5377914895708e-06
  12    4.7649632476079e-06
  13    1.6425605917453e-07
  14    6.9550936712904e-08
  15    2.577605951452e-09
  16    -1.0026648692819e-05
  17    1.6730259371444e-05
  18    -3.92403698926e-07
  19    -8.6893359914516e-10
  20    -1.5456942135348e-07
  21    -3.3815829329363e-05
  22    5.6840358259697e-05
  23    -4.1707205306185e-07
  24    -1.399511777368e-06
  25    1.7594457171809e-07
  26    0.00096848518626435
  27    -0.0020511326645689
  28    8.8162326314879e-08
  29    2.5699822974972e-07
  30    1.5303183582741e-09
  31    4.4915015428172e-05
  32    -0.00014092227654798
  33    -7.4468325487016e-07
  34    2.4042869124643e-08
  35    -7.5666454491796e-07
  36    0.00054676153172745
  37    -0.0011955120698058
  38    -8.3618422032618e-08
  39    1.2382254998133e-07
  40    1.3187678161488e-07
 Sym= A
 Ene=               9
 Spin= Alpha
 Occup=    0.00000
   1    6.9988616824557e-07
   2    -9.6691452278874e-07
   3    1.6639026528379e-08
   4    2.8819638279114e-08
   5    3.5707235909916e-08
   6    -4.4928022685483e-06
   7    1.0475393188366e-05
   8    1.0294131189899e-07
   9    1.7829976081168e-07
  10       1.0000002850396
  11    0.00030490059692725
  12    -0.000644763784989
  13    8.1947094223418e-08
  14    2.0071813227361e-08
  15    4.4215064692451e-08
  16    -3.1676033710369e-06
  17    5.4158421088869e-06
  18    -1.6232569447787e-08
  19    -3.3327008977153e-07
  20    1.8114809721749e-07
  21    -3.1676040239425e-06
  22    5.4158431713819e-06
  23    -2.8050412291362e-07
  24    -1.8069289705239e-07
  25    1.8114812197483e-07
  26    0.00030490063787326
  27    -0.00064476386743873
  28    -2.3590848437089e-08
  29    8.1004181933896e-08
  30    4.4215061817426e-08
  31    5.0081183393384e-05
  32    -0.00013457582226807
  33    -1.1497265741002e-07
  34    -1.9913846828376e-07
  35    1.8368220699948e-08
  36    -0.00025791484921385
  37    0.00056055481679176
  38    -8.7851962078003e-09
  39    -1.5216407585058e-08
  40    2.8299389857159e-08
 Sym= A
 Ene=              10
 Spin= Alpha
 Occup=    0.00000
   1    0.00011212670128123
   2    -0.00023853724315917
   3    -5.2853211094528e-09
   4    -4.5988278210577e-07
   5    2.0555353418081e-08
   6    -0.0047034777325492
   7     0.010344112089372
   8    0.00032545407285544
   9    -3.3501423478301e-07
  10    8.8057537677849e-05
  11       1.2179674051524
  12     -0.43588953985163
  13    5.8071852694372e-06
  14    -1.0058342824588e-05
  15    3.1901884804693e-06
  16    -0.0047034780707659
  17      0.01034411284226
  18    -0.00016243692474813
  19    -0.00028201903137611
  20    8.8057548065404e-05
  21    1.846444093397e-05
  22    -4.094893000194e-05
  23    5.1212134659466e-08
  24    -8.8702011280296e-08
  25    -1.0692688569984e-07
  26    0.00011212669283265
  27    -0.00023853722533186
  28    4.0091282134069e-07
  29    -2.2536420402484e-07
  30    2.0555333040364e-08
  31     -0.00346416683897
  32     0.007602361595431
  33    0.00010053639165688
  34    -0.00017413413606318
  35    -7.9942983776579e-05
  36    -0.0010847316155186
  37    0.0024037194986045
  38    2.197177361313e-05
  39    -3.8056227771271e-05
  40    2.9717548314151e-05
 Sym= A
 Ene=              11
 Spin= Alpha
 Occup=    0.00000
   1    -9.9001482209496e-05
   2    0.00021594300820425
   3    -3.364217139843e-07
   4    1.4438104211711e-06
   5    1.1904498864796e-07
   6     0.001340030746657
   7    -0.010322123501671
   8    0.00023051084743248
   9    4.318620945029e-07
  10    6.2637940217963e-05
  11     -0.43574315018025
  12       1.2181737089012
  13    -8.2193355155223e-06
  14    1.4236310925087e-05
  15    -4.565287421843e-06
  16    0.0013400309075485
  17    -0.010322124366737
  18    -0.00011562943561162
  19    -0.00019941233034558
  20    6.2637944750912e-05
  21    -1.5242220723929e-05
  22    3.3352752718785e-05
  23    -5.5634018973005e-08
  24    9.6360940785611e-08
  25    6.2622781719572e-08
  26    -9.9001474235387e-05
  27    0.00021594299092772
  28    -1.0821655443194e-06
  29    1.013254871717e-06
  30    1.1904498757488e-07
  31    0.00077470937767671
  32    -0.0072494201208818
  33    8.2064451292079e-05
  34    -0.00014213979712083
  35    -6.553974220258e-05
  36    -8.6835259148421e-05
  37    -0.0019412766168919
  38    1.7479298776092e-05
  39    -3.0275033120407e-05
  40    2.2790753119254e-05
 Sym= A
 Ene=              12
 Spin= Alpha
 Occup=    0.00000
   1    -7.9458007074672e-06
   2    1.3498355209208e-05
   3    4.6648214166735e-07
   4    -4.1510309189077e-07
   5    -2.8006306390559e-07
   6    -0.0011197754239952
   7    0.0023711947718887
   8    1.1126433096949e-07
   9    -1.9638508003464e-07
  10    2.7885738784736e-10
  11    8.1906878721791e-06
  12    -1.9158956508444e-05
  13       1.0000018798867
  14    4.1617176803104e-07
  15    1.0290410838883e-07
  16    0.00056208557959626
  17    -0.0011897241173772
  18    -7.6182894920095e-08
  19    -5.6033306191004e-08
  20    2.0928391573136e-09
  21    1.8551063565523e-06
  22    -3.072358689298e-06
  23    -5.4911528957739e-08
  24    1.6173212398401e-08
  25    -2.6775446889898e-08
  26    3.3258263900711e-05
  27    -5.5974365607289e-05
  28    -9.3216060572734e-07
  29    1.2245786962145e-06
  30    2.9240395286278e-07
  31    -0.00031567292189103
  32    0.00069022922487673
  33    2.2037677389366e-07
  34    8.3618428548735e-08
  35    7.6139102232176e-08
  36    -2.5931697615629e-05
  37    8.1361516963962e-05
  38    8.8392902056124e-07
  39    7.4468323007512e-07
  40    -4.3686047460756e-07
 Sym= A
 Ene=              13
 Spin= Alpha
 Occup=    0.00000
   1    -3.3815829329457e-05
   2    5.6840358259944e-05
   3    4.1707205257319e-07
   4    -1.3995117775183e-06
   5    -1.7594457175859e-07
   6    -2.5377914898205e-06
   7    4.7649632479234e-06
   8    -1.6425605909849e-07
   9    6.9550936710568e-08
  10    -2.5776056227589e-09
  11    -1.4186691606231e-05
  12    3.3184295521859e-05
  13    4.1617176796298e-07
  14       1.0000013993333
  15    -1.7823532293155e-07
  16    0.00096848518626426
  17    -0.0020511326645686
  18    -8.8162325848422e-08
  19    2.5699822980574e-07
  20    -1.5303187168755e-09
  21    -3.2131383266235e-06
  22    5.3214811374958e-06
  23    1.6173211158654e-08
  24    -7.3586742405455e-08
  25    4.6376434039004e-08
  26    -1.0026648692851e-05
  27    1.6730259371572e-05
  28    3.9240369941602e-07
  29    -8.6893365172661e-10
  30    1.5456942118146e-07
  31    0.0005467615317283
  32    -0.001195512069807
  33    8.3618422013008e-08
  34    1.2382255033974e-07
  35    -1.3187678192279e-07
  36    4.4915015428303e-05
  37    -0.0001409222765485
  38    7.4468325470324e-07
  39    2.4042869318442e-08
  40    7.5666454536623e-07
 Sym= A
 Ene=              14
 Spin= Alpha
 Occup=    0.00000
   1    3.1676040238911e-06
   2    -5.4158431713614e-06
   3    -2.805041226606e-07
   4    1.8069289682634e-07
   5    1.8114812198281e-07
   6    -0.00030490059692688
   7    0.0006447637849883
   8    8.1947094220103e-08
   9    -2.0071812897685e-08
  10    4.4215064692246e-08
  11    4.4928022688966e-06
  12    -1.0475393188135e-05
  13    1.0294131145002e-07
  14    -1.7829976057173e-07
  15       1.0000002850396
  16    -0.00030490063787292
  17    0.00064476386743812
  18    -2.3590848571772e-08
  19    -8.1004182070329e-08
  20    4.4215061385317e-08
  21    -6.9988616824794e-07
  22    9.6691452267589e-07
  23    1.6639026596224e-08
  24    -2.8819638238174e-08
  25    3.5707236113446e-08
  26    3.1676033710956e-06
  27    -5.415842108662e-06
  28    -1.6232570437066e-08
  29    3.3327008953394e-07
  30    1.8114809785607e-07
  31    0.00025791484921337
  32    -0.0005605548167907
  33    -8.7851961135538e-09
  34    1.5216407687929e-08
  35    2.8299389719878e-08
  36    -5.0081183393319e-05
  37    0.0001345758222681
  38    -1.1497265794578e-07
  39    1.9913846859544e-07
  40    1.8368220733349e-08
 Sym= A
 Ene=              15
 Spin= Alpha
 Occup=    0.00000
   1    -0.0047034780709038
   2     0.010344112842092
   3    0.00016301718641849
   4    -0.00028168401711726
   5    -8.8057548112073e-05
   6    0.00011212669271795
   7    -0.00023853722476985
   8    3.9562751924306e-07
   9    2.3451861912037e-07
  10    -2.0555354756007e-08
  11    -0.0047034780709011
  12      0.01034411284209
  13    0.0001630171864186
  14    0.00028168401711749
  15    -8.8057548111801e-05
  16       1.2179674051568
  17      -0.4358895398607
  18    1.1614373282947e-05
  19    9.4699592204422e-16
  20    -3.1901892192388e-06
  21    0.00011212669271859
  22    -0.00023853722477065
  23      3.9562751927e-07
  24    -2.34518619031e-07
  25    -2.0555354780667e-08
  26    1.8464437022491e-05
  27    -4.0948921650186e-05
  28    1.0242423010053e-07
  29    -3.1640745455159e-19
  30    1.0692687622827e-07
  31    -0.0010847315176315
  32    0.0024037192850907
  33    4.3943542782204e-05
  34    -3.2275651107051e-18
  35    -2.9717545325168e-05
  36    -0.0034641665833729
  37    0.0076023610326034
  38    0.00020107276050705
  39    -6.9069733215964e-17
  40    7.9942974660174e-05
 Sym= A
 Ene=              16
 Spin= Alpha
 Occup=    0.00000
   1    0.0013400309077312
   2    -0.010322124366873
   3    0.00011488142852125
   4    -0.00019984419247401
   5    -6.2637944703386e-05
   6    -9.900147415299e-05
   7    0.00021594299064843
   8    -1.4185872330568e-06
   9    -4.3055542845289e-07
  10    -1.1904497388993e-07
  11    0.0013400309077289
  12     -0.01032212436687
  13    0.00011488142852111
  14    0.00019984419247393
  15    -6.2637944703562e-05
  16     -0.43574315018616
  17       1.2181737089125
  18    -1.643867504813e-05
  19    3.2712814466657e-16
  20    4.5652884901344e-06
  21    -9.9001474154026e-05
  22    0.00021594299064917
  23    -1.4185872331339e-06
  24    4.3055542843514e-07
  25    -1.1904497387984e-07
  26    -1.5242217491415e-05
  27    3.3352745494799e-05
  28    -1.1126798299616e-07
  29    -1.0783833932734e-17
  30    -6.2622779571327e-08
  31    -8.6835283659913e-05
  32    -0.0019412764176873
  33    3.4958593070423e-05
  34    -4.4978795697601e-18
  35    -2.2790750162498e-05
  36    0.00077470926943141
  37    -0.0072494195046081
  38    0.00016412888771434
  39    6.5254586204324e-17
  40    6.5539736302425e-05
 Sym= A
 Ene=              17
 Spin= Alpha
 Occup=    0.00000
   1    -0.00055768999644157
   2    0.0011814709600378
   3    2.3614148493955e-07
   4    -9.2158248819874e-08
   5    -2.3717192012052e-09
   6    2.5312464645523e-05
   7    -4.2476012779532e-05
   8    -9.3386579163582e-07
   9    -3.9141919557712e-07
  10    -1.2340945152497e-08
  11    -0.00055768999644129
  12    0.0011814709600375
  13    2.3614148503567e-07
  14    9.215824875078e-08
  15    -2.3717189129572e-09
  16    1.6381379595357e-05
  17    -3.831792195219e-05
  18       1.0000011590563
  19    2.5567938309332e-16
  20    -2.0580847469137e-07
  21    2.5312464645696e-05
  22    -4.2476012779756e-05
  23    -9.3386579125783e-07
  24    3.9141919568629e-07
  25    -1.2340945195409e-08
  26    3.7102115082758e-06
  27    -6.144715407994e-06
  28    -8.2924319231003e-08
  29    -1.1822254592162e-17
  30    5.355087919739e-08
  31    -5.1863380491461e-05
  32    0.00016272300168457
  33    -4.0590027005628e-07
  34    -1.1310172657778e-16
  35    8.7372092353021e-07
  36    -0.00063134575560976
  37    0.0013804582688117
  38    7.554539857027e-08
  39    -7.4660079973511e-17
  40    -1.5227820151801e-07
 Sym= A
 Ene=              18
 Spin= Alpha
 Occup=    0.00000
   1    0.00097102297724571
   2    -0.0020558976269906
   3    -1.2428723654861e-07
   4    -5.5326187100541e-08
   5    -1.0472915750493e-09
   6    2.3789178026053e-05
   7    -4.0110094263195e-05
   8    -1.2235942632353e-06
   9    8.3623852993685e-10
  10    -3.3051397188373e-07
  11    -0.00097102297724599
  12    0.0020558976269911
  13    1.2428723707561e-07
  14    -5.5326187335029e-08
  15    1.0472919753844e-09
  16    -8.3333727142067e-16
  17    -4.053542148654e-16
  18    2.5560110774636e-16
  19        1.000002120164
  20    -2.0864754919484e-17
  21    -2.3789178025891e-05
  22    4.0110094262904e-05
  23    1.2235942629561e-06
  24    8.3623828136943e-10
  25    3.3051397148738e-07
  26    -2.0802317162525e-16
  27    1.5351149098294e-17
  28    2.5111422848047e-20
  29    -4.5573921559703e-08
  30    1.1208107884469e-16
  31    -1.840300038165e-17
  32    -6.4024374357376e-17
  33    2.7559398537328e-17
  34    1.3138722368729e-06
  35    1.622863371605e-16
  36    -1.6735029818351e-16
  37    2.4121944002489e-16
  38    5.931554926351e-17
  39    2.6865392845119e-07
  40    -1.2142567960387e-16
 Sym= A
 Ene=              19
 Spin= Alpha
 Occup=    0.00000
   1    0.00030490063801054
   2    -0.00064476386761017
   3    -5.83562568519e-08
   4    6.0932376879896e-08
   5    4.4215064823313e-08
   6    -3.1676040123114e-06
   7    5.4158430792083e-06
   8    2.9673667154347e-07
   9    -1.5257722028051e-07
  10    1.8114809676629e-07
  11    0.00030490063801048
  12    -0.00064476386761016
  13    -5.8356257184364e-08
  14    -6.093237696123e-08
  15    4.4215064471762e-08
  16    -4.4928033112244e-06
  17    1.0475395608996e-05
  18    -2.0588288087419e-07
  19    -2.0711109378894e-17
  20       1.0000002850396
  21    -3.1676040123396e-06
  22    5.4158430793029e-06
  23    2.9673667149207e-07
  24    1.5257722082329e-07
  25    1.8114809755923e-07
  26    6.9988612300593e-07
  27    -9.6691447876329e-07
  28    -3.3278049781132e-08
  29    2.2672940976086e-18
  30    3.5707226259661e-08
  31    5.0081173096455e-05
  32    -0.0001345757998393
  33    2.2994533566614e-07
  34    -2.551847667212e-16
  35    1.8368162625627e-08
  36    -0.00025791481446431
  37    0.00056055474533157
  38    1.7570395934877e-08
  39    -7.5299621513982e-16
  40    2.8299391772005e-08
 Sym= A
 Ene=              20
 Spin= Alpha
 Occup=    0.00000
   1    -0.0047034777325524
   2     0.010344112089375
   3    -0.00032545407285542
   4    3.3501423552708e-07
   5    -8.8057537677925e-05
   6    0.00011212670128875
   7    -0.00023853724315403
   8    5.2853208386906e-09
   9    4.5988278227253e-07
  10    -2.0555353388632e-08
  11    1.8464440934031e-05
  12    -4.0948930001959e-05
  13    -5.1212134559376e-08
  14    8.8702011278062e-08
  15    1.0692688553015e-07
  16    0.00011212669284338
  17    -0.00023853722532981
  18    -4.0091282136349e-07
  19    2.2536420401588e-07
  20    -2.0555332923778e-08
  21       1.2179674051524
  22     -0.43588953985161
  23    -5.8071852689112e-06
  24     1.00583428237e-05
  25    -3.1901884809333e-06
  26    -0.0047034780707658
  27      0.01034411284226
  28    0.00016243692474823
  29    0.00028201903137612
  30    -8.8057548065488e-05
  31    -0.0010847316155265
  32    0.0024037194985755
  33    -2.197177361305e-05
  34    3.8056227771261e-05
  35    -2.9717548314121e-05
  36    -0.0034641668389648
  37    0.0076023615954312
  38    -0.00010053639165679
  39    0.00017413413606304
  40    7.9942983776548e-05
 Sym= A
 Ene=              21
 Spin= Alpha
 Occup=    0.00000
   1    0.0013400307466597
   2    -0.010322123501674
   3    -0.00023051084743256
   4    -4.3186209501792e-07
   5    -6.2637940218101e-05
   6    -9.9001482204573e-05
   7    0.00021594300821189
   8    3.3642171412517e-07
   9    -1.4438104211459e-06
  10    -1.190449886438e-07
  11    -1.5242220723821e-05
  12    3.3352752718673e-05
  13    5.5634019012783e-08
  14    -9.6360940743153e-08
  15    -6.2622781613412e-08
  16    -9.9001474233272e-05
  17    0.00021594299093783
  18    1.0821655442908e-06
  19    -1.013254871665e-06
  20    -1.1904498763986e-07
  21     -0.43574315018028
  22       1.2181737089013
  23    8.2193355155479e-06
  24    -1.4236310924868e-05
  25    4.5652874213601e-06
  26     0.001340030907548
  27    -0.010322124366737
  28    0.00011562943561152
  29    0.00019941233034574
  30    -6.2637944750858e-05
  31    -8.6835259177158e-05
  32    -0.0019412766169001
  33    -1.7479298775936e-05
  34    3.027503312004e-05
  35    -2.2790753118992e-05
  36    0.00077470937767643
  37    -0.0072494201208752
  38    -8.2064451292229e-05
  39    0.00014213979712116
  40    6.553974220266e-05
 Sym= A
 Ene=              22
 Spin= Alpha
 Occup=    0.00000
   1     0.001119775423995
   2    -0.0023711947718884
   3    1.1126433146748e-07
   4    -1.9638507950864e-07
   5    2.7885785034057e-10
   6    7.9458007075291e-06
   7    -1.3498355209522e-05
   8    4.6648214203835e-07
   9    -4.1510309207973e-07
  10    -2.8006306366955e-07
  11    -1.8551063568254e-06
  12    3.0723586898762e-06
  13    -5.4911528958476e-08
  14    1.6173212383531e-08
  15    -2.6775446957327e-08
  16    -3.3258263900596e-05
  17    5.5974365607218e-05
  18    -9.321606052305e-07
  19    1.2245786961068e-06
  20    2.9240395243378e-07
  21    -8.1906878724825e-06
  22    1.9158956508189e-05
  23       1.0000018798867
  24    4.1617176772169e-07
  25    1.0290410883174e-07
  26    -0.00056208557959633
  27    0.0011897241173774
  28    -7.618289484452e-08
  29    -5.6033306430185e-08
  30    2.0928393103275e-09
  31    2.593169761572e-05
  32    -8.1361516963997e-05
  33    8.8392902038734e-07
  34    7.4468323015788e-07