[Molden Format]
made by pyscf v[2.0.1]
[Atoms] (AU)
He   1   2     2.60931777012738     4.51947088923593     0.70746716274711
He   2   2    -2.60931777012738    -4.51947088923593    -0.70746716274711
He   3   2     2.60931777012738    -4.51947088923593     0.70746716274711
He   4   2     5.21863554025476     0.00000000000000    -0.70746716274711
He   5   2    -2.60931777012738     4.51947088923593    -0.70746716274711
He   6   2    -5.21863554025476     0.00000000000000     0.70746716274711
He   7   2     0.00000000000000     0.00000000000000     2.78558858843762
He   8   2     0.00000000000000     0.00000000000000    -2.78558858843762
[GTO]
1 0
 s    3 1.00
                 38.36   0.040176075383249
                  5.77    0.26136807476949
                  1.24    0.79307123949544
 s    1 1.00
                0.2976                   1
 p    1 1.00
                 1.275                   1

2 0
 s    3 1.00
                 38.36   0.040176075383249
                  5.77    0.26136807476949
                  1.24    0.79307123949544
 s    1 1.00
                0.2976                   1
 p    1 1.00
                 1.275                   1

3 0
 s    3 1.00
                 38.36   0.040176075383249
                  5.77    0.26136807476949
                  1.24    0.79307123949544
 s    1 1.00
                0.2976                   1
 p    1 1.00
                 1.275                   1

4 0
 s    3 1.00
                 38.36   0.040176075383249
                  5.77    0.26136807476949
                  1.24    0.79307123949544
 s    1 1.00
                0.2976                   1
 p    1 1.00
                 1.275                   1

5 0
 s    3 1.00
                 38.36   0.040176075383249
                  5.77    0.26136807476949
                  1.24    0.79307123949544
 s    1 1.00
                0.2976                   1
 p    1 1.00
                 1.275                   1

6 0
 s    3 1.00
                 38.36   0.040176075383249
                  5.77    0.26136807476949
                  1.24    0.79307123949544
 s    1 1.00
                0.2976                   1
 p    1 1.00
                 1.275                   1

7 0
 s    3 1.00
                 38.36   0.040176075383249
                  5.77    0.26136807476949
                  1.24    0.79307123949544
 s    1 1.00
                0.2976                   1
 p    1 1.00
                 1.275                   1

8 0
 s    3 1.00
                 38.36   0.040176075383249
                  5.77    0.26136807476949
                  1.24    0.79307123949544
 s    1 1.00
                0.2976                   1
 p    1 1.00
                 1.275                   1

[5d]
[7f]
[9g]

[MO]
 Sym= A
 Ene=               0
 Spin= Alpha
 Occup=    1.00000
   1       1.2179334644941
   2     -0.43578327218908
   3    4.9158625684636e-06
   4    8.5145261576977e-06
   5    2.6911092564635e-06
   6    1.3719498125175e-05
   7    -2.429482365136e-05
   8    -5.1509902446262e-07
   9    -8.9217765122224e-07
  10    1.3050394114569e-07
  11    8.2111058682152e-05
  12    -0.00014740291972586
  13    -2.0042046636667e-06
  14    -8.5118447709787e-06
  15    8.1480829294235e-07
  16    -0.0030932919906119
  17    0.0058457161344292
  18    -0.00022839780010957
  19    0.00039738087252761
  20    0.00012454061460414
  21    -0.0030932917582778
  22    0.0058457156779142
  23    0.00045834077348707
  24    8.9214205474368e-07
  25    0.00012454059785435
  26    8.2111052426092e-05
  27    -0.00014740290839591
  28    -6.3693709065202e-06
  29    -5.9916140510452e-06
  30    8.1480828619755e-07
  31    -0.0022428238363241
  32    0.0041943180729329
  33    0.00013090036681807
  34    0.00022672608286695
  35    -0.00010287079214023
  36    -0.00064468609234811
  37    0.0011832177459754
  38    1.7605796708734e-05
  39    3.0494133601589e-05
  40    1.9704416674551e-05
 Sym= A
 Ene=               1
 Spin= Alpha
 Occup=    1.00000
   1     -0.43578327218908
   2       1.2182569856962
   3    -9.2871073863138e-06
   4    -1.6085746514772e-05
   5    -5.1201591317617e-06
   6    -2.4294823651492e-05
   7    4.4388914764667e-05
   8    9.5764528794095e-07
   9    1.6586902402986e-06
  10    -2.2516820405696e-07
  11    -0.00014740291972564
  12    0.00027237586394004
  13    3.8283170286491e-06
  14    1.6080409546486e-05
  15    -1.5640575942337e-06
  16    0.0058457161343737
  17    -0.011925784836317
  18    0.00045689476218935
  19    -0.00079468217645668
  20    -0.00024902047754075
  21     0.005845715677914
  22    -0.011925783864689
  23    -0.00091666221954836
  24    -1.6586230031421e-06
  25    -0.00024902044404138
  26    -0.00014740290823887
  27    0.00027237584252363
  28    1.2011883571271e-05
  29    1.1355623615076e-05
  30    -1.5640575683906e-06
  31    0.0041933603816208
  32    -0.0084539195609248
  33    -0.00026179701111298
  34    -0.00045344571815355
  35    0.00020592660785937
  36    0.0011819144934848
  37    -0.002341662265967
  38    -3.541280272102e-05
  39    -6.1336772014738e-05
  40    -4.0145498233321e-05
 Sym= A
 Ene=               2
 Spin= Alpha
 Occup=    1.00000
   1    4.9158625684637e-06
   2    -9.2871073863138e-06
   3       1.0000012875346
   4    -2.8117496376969e-07
   5    6.9793348264967e-08
   6    5.1509902460123e-07
   7    -9.5764528806944e-07
   8    -3.4777404052129e-08
   9    -2.0327755518468e-08
  10    -4.4612406560501e-09
  11    -2.0042046637831e-06
  12    3.8283170286522e-06
  13    3.2095387621547e-07
  14    2.8117502591362e-07
  15    -1.9227672011611e-07
  16    0.00022994303529902
  17    -0.00045976758117109
  18    6.9735584849038e-08
  19    -4.7184102026671e-08
  20    -2.5481090676366e-08
  21    -0.00045834077348722
  22    0.00091666221954859
  23    1.1626187694646e-07
  24    2.0322107079767e-08
  25     3.75810985836e-08
  26    8.3735751902713e-06
  27    -1.584019988679e-05
  28    -6.4190787455048e-07
  29    -8.3708344689938e-07
  30    2.0082843480805e-07
  31    -0.00013032229951297
  32    0.00026073854370778
  33    8.0776709035794e-08
  34    -5.0027098153816e-08
  35    3.7868145425841e-08
  36    -1.5614992014672e-05
  37    3.1709136839434e-05
  38    5.5144582461661e-07
  39    -4.7743486110811e-07
  40    -2.9750377809224e-07
 Sym= A
 Ene=               3
 Spin= Alpha
 Occup=    1.00000
   1    8.5145261576977e-06
   2    -1.6085746514772e-05
   3    -2.8117496377889e-07
   4       1.0000009628619
   5    1.2088574566963e-07
   6    8.9217765120561e-07
   7    -1.6586902402323e-06
   8    -2.0327755515045e-08
   9    -5.824987252797e-08
  10    -7.7270954690154e-09
  11    8.5118447710509e-06
  12    -1.6080409546311e-05
  13    -2.811750262269e-07
  14    -9.628618806232e-07
  15    1.2088571477484e-07
  16    -0.00039648873059016
  17    0.00079302355367365
  18    -6.539899762321e-09
  19    1.0075314594585e-07
  20    2.8683419084076e-08
  21    8.9214205532869e-07
  22    -1.6586230033406e-06
  23    -2.0322106855961e-08
  24    5.4226808669227e-08
  25    -7.7255639615186e-09
  26    2.5202300519211e-06
  27    -4.7247846246724e-06
  28    -2.7473346981764e-07
  29    -6.9733797557961e-14
  30    -1.0607365090591e-07
  31    -0.00022572484095264
  32    0.00045161239888223
  33    -5.002709618069e-08
  34    2.3010390499211e-08
  35    6.5589547178269e-08
  36    -2.704595869541e-05
  37    5.492183448632e-05
  38    -4.7743486095318e-07
  39    1.5152629212612e-10
  40    -5.1529165116637e-07
 Sym= A
 Ene=               4
 Spin= Alpha
 Occup=    1.00000
   1    2.6911092564635e-06
   2    -5.1201591317617e-06
   3    6.9793348273596e-08
   4    1.2088574569209e-07
   5       1.0000001958768
   6    -1.3050394122207e-07
   7    2.2516820409131e-07
   8    -4.4612406747605e-09
   9    -7.7270952582831e-09
  10    2.554258292982e-08
  11    8.1480829299607e-07
  12    -1.5640575942054e-06
  13    -1.9227672060369e-07
  14    -1.2088571502626e-07
  15     1.24821476822e-07
  16    -0.0001245406145913
  17    0.00024902047751756
  18    -1.2100023347982e-08
  19    3.6408980024449e-08
  20    3.2918535946394e-08
  21    -0.00012454059785437
  22    0.0002490204440413
  23    3.7581098978866e-08
  24    7.7255637879482e-09
  25    3.2918536406877e-08
  26    8.1480812450496e-07
  27    -1.5640572780596e-06
  28    -8.5517403046991e-09
  29    -2.2695934899393e-07
  30    1.2482146006504e-07
  31    0.00010556948274178
  32    -0.00021094736901177
  33    -1.6345310161673e-08
  34    -2.8310908258676e-08
  35    6.7876139190242e-08
  36    -2.4749221902773e-05
  37    4.9677844569964e-05
  38    -7.4680573408292e-08
  39    -1.2935054613198e-07
  40    3.4845142519902e-08
 Sym= A
 Ene=               5
 Spin= Alpha
 Occup=    1.00000
   1    1.3719498125182e-05
   2    -2.4294823651496e-05
   3    5.1509902460143e-07
   4    8.9217765120548e-07
   5    -1.3050394122211e-07
   6       1.2179334644941
   7     -0.43578327218906
   8    -4.9158625683054e-06
   9    -8.5145261575245e-06
  10    -2.6911092565408e-06
  11    -0.0030932917582742
  12    0.0058457156779108
  13    -0.00045834077348712
  14    -8.9214205481261e-07
  15    -0.00012454059785441
  16    8.2111052433694e-05
  17    -0.00014740290839107
  18    6.3693709064147e-06
  19    5.9916140510936e-06
  20    -8.1480828615977e-07
  21    8.211105868974e-05
  22    -0.0001474029197208
  23    2.0042046635616e-06
  24    8.5118447709408e-06
  25    -8.1480829301973e-07
  26    -0.0030932919906082
  27    0.0058457161344259
  28    0.00022839780010957
  29    -0.00039738087252759
  30    -0.00012454061460415
  31    -0.0006446860923709
  32    0.0011832177459611
  33    -1.7605796708717e-05
  34    -3.0494133601563e-05
  35    -1.9704416674588e-05
  36    -0.0022428238363106
  37    0.0041943180729252
  38    -0.00013090036681806
  39    -0.00022672608286695
  40    0.0001028707921402
 Sym= A
 Ene=               6
 Spin= Alpha
 Occup=    1.00000
   1    -2.4294823651388e-05
   2    4.4388914764683e-05
   3    -9.5764528806941e-07
   4    -1.6586902402322e-06
   5    2.2516820409131e-07
   6     -0.43578327218906
   7       1.2182569856962
   8    9.2871073862855e-06
   9    1.6085746514556e-05
  10    5.120159131952e-06
  11    0.0058457156779108
  12    -0.011925783864685
  13    0.00091666221954846
  14    1.6586230032561e-06
  15    0.00024902044404142
  16    -0.00014740290823425
  17    0.00027237584253106
  18    -1.201188357108e-05
  19    -1.1355623615188e-05
  20    1.5640575683544e-06
  21    -0.00014740291972059
  22    0.00027237586394759
  23    -3.8283170287333e-06
  24    -1.6080409546428e-05
  25    1.5640575941913e-06
  26    0.0058457161343703
  27    -0.011925784836313
  28    -0.00045689476218931
  29    0.0007946821764567
  30    0.00024902047754072
  31    0.0011819144934701
  32    -0.0023416622659896
  33    3.541280272098e-05
  34    6.1336772014716e-05
  35    4.0145498233375e-05
  36    0.0041933603816126
  37    -0.0084539195609113
  38    0.00026179701111299
  39    0.00045344571815365
  40    -0.00020592660785937
 Sym= A
 Ene=               7
 Spin= Alpha
 Occup=    1.00000
   1    -5.1509902446274e-07
   2    9.5764528794094e-07
   3    -3.4777404086138e-08
   4    -2.0327755543871e-08
   5    -4.4612406750895e-09
   6    -4.9158625683052e-06
   7    9.2871073862855e-06
   8       1.0000012875346
   9    -2.8117496377936e-07
  10    6.9793348334152e-08
  11    0.00045834077348725
  12    -0.00091666221954872
  13    1.1626187646615e-07
  14    2.032210745183e-08
  15    3.7581098512053e-08
  16    -8.3735751902365e-06
  17    1.5840199886897e-05
  18    -6.4190787458445e-07
  19    -8.3708344722223e-07
  20    2.0082843434243e-07
  21    2.0042046635879e-06
  22    -3.8283170286795e-06
  23    3.2095387655473e-07
  24    2.8117502628444e-07
  25    -1.9227672051042e-07
  26    -0.00022994303529927
  27    0.00045976758117153
  28    6.9735585133526e-08
  29    -4.7184102593293e-08
  30    -2.5481090745072e-08
  31    1.5614992014371e-05
  32    -3.1709136839388e-05
  33    5.5144582463217e-07
  34    -4.7743486090769e-07
  35    -2.9750377787976e-07
  36    0.00013032229951293
  37    -0.00026073854370774
  38    8.0776708930429e-08
  39    -5.0027098446982e-08
  40    3.7868145585071e-08
 Sym= A
 Ene=               8
 Spin= Alpha
 Occup=    0.00000
   1    -8.9217765122229e-07
   2    1.6586902402985e-06
   3    -2.0327755486517e-08
   4    -5.8249872506874e-08
   5    -7.7270952478451e-09
   6    -8.5145261575242e-06
   7    1.6085746514556e-05
   8    -2.8117496375102e-07
   9       1.0000009628619
  10    1.2088574559152e-07
  11    -8.9214205465264e-07
  12    1.6586230030522e-06
  13    -2.0322107387332e-08
  14    5.4226809291612e-08
  15    -7.7255641416669e-09
  16    -2.5202300520136e-06
  17    4.7247846245895e-06
  18    -2.7473346979377e-07
  19    -6.9395756928064e-14
  20    -1.0607365038187e-07
  21    -8.5118447709744e-06
  22    1.6080409546418e-05
  23    -2.8117502640644e-07
  24    -9.6286188045799e-07
  25    1.2088571498593e-07
  26    0.00039648873059035
  27    -0.00079302355367372
  28    -6.5398992000959e-09
  29    1.0075314566426e-07
  30    2.8683418795524e-08
  31    2.7045958695493e-05
  32    -5.4921834486219e-05
  33    -4.7743486100506e-07
  34    1.5152616012049e-10
  35    -5.1529165094377e-07
  36    0.00022572484095265
  37    -0.00045161239888197
  38    -5.0027096256599e-08
  39    2.3010390014503e-08
  40    6.5589547484447e-08
 Sym= A
 Ene=               9
 Spin= Alpha
 Occup=    0.00000
   1    1.3050394114562e-07
   2    -2.2516820405691e-07
   3    -4.4612406524364e-09
   4    -7.7270954501074e-09
   5    2.5542582917574e-08
   6    -2.6911092565407e-06
   7    5.120159131952e-06
   8    6.9793348338927e-08
   9    1.2088574562304e-07
  10       1.0000001958768
  11    0.00012454059785449
  12    -0.00024902044404177
  13    3.7581098506971e-08
  14    7.7255644970436e-09
  15    3.2918536322959e-08
  16    -8.148081243622e-07
  17    1.5640572779821e-06
  18    -8.5517399531219e-09
  19    -2.2695934925057e-07
  20    1.2482145974463e-07
  21    -8.1480829299996e-07
  22    1.5640575942647e-06
  23    -1.9227672037007e-07
  24    -1.2088571500918e-07
  25    1.2482147683569e-07
  26    0.00012454061459118
  27    -0.00024902047751782
  28    -1.2100022948204e-08
  29    3.6408979475138e-08
  30    3.291853602605e-08
  31    2.474922190278e-05
  32    -4.9677844570126e-05
  33    -7.4680573140855e-08
  34    -1.2935054569372e-07
  35    3.4845141985641e-08
  36    -0.00010556948274187
  37    0.0002109473690124
  38    -1.6345310095975e-08
  39    -2.8310907846826e-08
  40    6.7876139091715e-08
 Sym= A
 Ene=              10
 Spin= Alpha
 Occup=    0.00000
   1    8.2111058682098e-05
   2    -0.00014740291972565
   3    -2.004204663783e-06
   4    8.5118447710512e-06
   5    8.1480829299608e-07
   6    -0.0030932917582742
   7    0.0058457156779108
   8    0.00045834077348725
   9    -8.9214205465269e-07
  10    0.00012454059785449
  11       1.2179334644941
  12     -0.43578327218907
  13    4.915862568405e-06
  14     -8.5145261578e-06
  15    2.6911092564629e-06
  16    -0.0030932919906094
  17    0.0058457161344265
  18    -0.00022839780010941
  19    -0.00039738087252765
  20    0.00012454061460407
  21    1.3719498130621e-05
  22    -2.4294823656704e-05
  23    -5.1509902459736e-07
  24    8.9217765124385e-07
  25    1.3050394106049e-07
  26    8.2111052423713e-05
  27    -0.00014740290839428
  28    -6.3693709065486e-06
  29    5.9916140510261e-06
  30    8.1480828622614e-07
  31    -0.0022428238363221
  32    0.0041943180729311
  33    0.00013090036681804
  34    -0.00022672608286708
  35    -0.00010287079214017
  36    -0.00064468609236079
  37    0.0011832177459883
  38    1.7605796708732e-05
  39    -3.0494133601585e-05
  40    1.9704416674575e-05
 Sym= A
 Ene=              11
 Spin= Alpha
 Occup=    0.00000
   1    -0.00014740291972586
   2    0.00027237586394005
   3    3.8283170286522e-06
   4    -1.6080409546311e-05
   5    -1.5640575942055e-06
   6    0.0058457156779108
   7    -0.011925783864685
   8    -0.00091666221954872
   9    1.6586230030522e-06
  10    -0.00024902044404177
  11     -0.43578327218907
  12       1.2182569856962
  13    -9.2871073862371e-06
  14    1.608574651486e-05
  15    -5.1201591319024e-06
  16    0.0058457161343714
  17    -0.011925784836314
  18    0.00045689476218914
  19    0.00079468217645696
  20    -0.00024902047754071
  21    -2.4294823656669e-05
  22    4.438891477059e-05
  23    9.5764528814024e-07
  24    -1.6586902402879e-06
  25    -2.2516820398377e-07
  26    -0.00014740290823727
  27    0.0002723758425218
  28    1.2011883571285e-05
  29    -1.1355623615024e-05
  30    -1.5640575683805e-06
  31    0.0041933603816195
  32    -0.0084539195609227
  33    -0.00026179701111292
  34    0.00045344571815371
  35    0.00020592660785931
  36    0.0011819144934976
  37    -0.0023416622659799
  38    -3.5412802721012e-05
  39    6.1336772014775e-05
  40    -4.0145498233332e-05
 Sym= A
 Ene=              12
 Spin= Alpha
 Occup=    0.00000
   1    -2.0042046636668e-06
   2    3.8283170286491e-06
   3    3.2095387621216e-07
   4    -2.8117502619255e-07
   5    -1.9227672059206e-07
   6    -0.00045834077348712
   7    0.00091666221954846
   8    1.1626187640108e-07
   9    -2.0322107367344e-08
  10    3.7581098519723e-08
  11    4.915862568405e-06
  12    -9.2871073862372e-06
  13       1.0000012875346
  14    2.8117496398465e-07
  15    6.9793347900663e-08
  16    0.00022994303529919
  17    -0.0004597675811713
  18    6.9735584952731e-08
  19    4.7184102568412e-08
  20    -2.5481090977969e-08
  21    5.1509902457495e-07
  22    -9.5764528788332e-07
  23    -3.4777404140525e-08
  24    2.0327755311801e-08
  25    -4.4612405173843e-09
  26    8.3735751902765e-06
  27    -1.5840199886771e-05
  28    -6.4190787469182e-07
  29    8.3708344705296e-07
  30    2.0082843472155e-07
  31    -0.00013032229951305
  32    0.00026073854370779
  33    8.0776708989232e-08
  34    5.0027098365562e-08
  35    3.7868145857995e-08
  36    -1.5614992014473e-05
  37    3.1709136839316e-05
  38    5.5144582483097e-07
  39    4.7743486094157e-07
  40    -2.9750377812771e-07
 Sym= A
 Ene=              13
 Spin= Alpha
 Occup=    0.00000
   1    -8.5118447709786e-06
   2    1.6080409546487e-05
   3    2.8117502591149e-07
   4    -9.6286188061232e-07
   5    -1.2088571503311e-07
   6    -8.9214205481269e-07
   7    1.6586230032561e-06
   8    2.0322107459967e-08
   9    5.4226809281387e-08
  10    7.7255644694681e-09
  11    -8.5145261577999e-06
  12    1.608574651486e-05
  13    2.8117496392935e-07
  14       1.0000009628619
  15    -1.2088574536311e-07
  16    0.00039648873059029
  17    -0.00079302355367354
  18    6.5398996571277e-09
  19    1.0075314570079e-07
  20    -2.868341914689e-08
  21    -8.9217765129965e-07
  22    1.6586902404105e-06
  23    2.032775530611e-08
  24    -5.8249872380127e-08
  25    7.7270955449044e-09
  26    -2.5202300519923e-06
  27    4.7247846246147e-06
  28    2.7473347028221e-07
  29    -6.9437259130028e-14
  30    1.0607365020693e-07
  31    0.0002257248409529
  32    -0.00045161239888248
  33    5.0027096249688e-08
  34    2.3010390362826e-08
  35    -6.5589547799756e-08
  36    2.7045958695505e-05
  37    -5.4921834486333e-05
  38    4.7743486083909e-07
  39    1.515263472972e-10
  40    5.1529165138217e-07
 Sym= A
 Ene=              14
 Spin= Alpha
 Occup=    0.00000
   1    8.1480829294232e-07
   2    -1.5640575942337e-06
   3    -1.9227672010935e-07
   4    1.208857147807e-07
   5    1.248214768309e-07
   6    -0.00012454059785441
   7    0.00024902044404142
   8    3.7581098503269e-08
   9    -7.7255641664856e-09
  10    3.2918536320897e-08
  11    2.6911092564628e-06
  12    -5.1201591319024e-06
  13    6.9793347889952e-08
  14    -1.2088574538326e-07
  15       1.0000001958768
  16    -0.00012454061459107
  17    0.00024902047751749
  18    -1.2100023082025e-08
  19    -3.6408979605978e-08
  20    3.2918535596048e-08
  21    -1.3050394121662e-07
  22    2.2516820403115e-07
  23    -4.4612405841511e-09
  24    7.7270954960431e-09
  25    2.5542583110211e-08
  26    8.1480812457162e-07
  27    -1.5640572779815e-06
  28    -8.5517409213153e-09
  29    2.2695934901798e-07
  30    1.2482146038642e-07
  31    0.00010556948274181
  32    -0.00021094736901183
  33    -1.6345310002879e-08
  34    2.831090794863e-08
  35    6.787613894753e-08
  36    -2.4749221902795e-05
  37    4.9677844570055e-05
  38    -7.4680573676991e-08
  39    1.2935054599226e-07
  40    3.4845142018446e-08
 Sym= A
 Ene=              15
 Spin= Alpha
 Occup=    0.00000
   1    -0.0030932919906119
   2    0.0058457161343738
   3    0.00022994303529902
   4    -0.00039648873059016
   5    -0.0001245406145913
   6    8.2111052433666e-05
   7    -0.00014740290823427
   8    -8.3735751902366e-06
   9    -2.5202300520135e-06
  10    -8.1480812436216e-07
  11    -0.0030932919906094
  12    0.0058457161343715
  13    0.00022994303529919
  14    0.00039648873059029
  15    -0.00012454061459107
  16       1.2179334644977
  17     -0.43578327219581
  18    9.831727437608e-06
  19    4.4741904967124e-17
  20    -2.691109877382e-06
  21    8.2111052434454e-05
  22    -0.0001474029082352
  23    -8.3735751901443e-06
  24    2.5202300520487e-06
  25    -8.1480812437738e-07
  26    1.3719495301455e-05
  27    -2.4294818606676e-05
  28    -1.0301977519296e-06
  29    -8.5362056814666e-19
  30    -1.3050393045721e-07
  31    -0.00064468602852175
  32    0.0011832176279002
  33    3.5211587392707e-05
  34    -4.470972911207e-18
  35    -1.9704413082777e-05
  36    -0.0022428236619253
  37    0.0041943177374258
  38    0.00026180069816345
  39    -9.1580489067114e-17
  40    0.00010287077808725
 Sym= A
 Ene=              16
 Spin= Alpha
 Occup=    0.00000
   1    0.0058457161344292
   2    -0.011925784836317
   3    -0.00045976758117109
   4    0.00079302355367365
   5    0.00024902047751756
   6    -0.00014740290839104
   7    0.00027237584253104
   8    1.5840199886897e-05
   9    4.7247846245894e-06
  10    1.5640572779821e-06
  11    0.0058457161344265
  12    -0.011925784836314
  13    -0.0004597675811713
  14    -0.00079302355367354
  15    0.00024902047751749
  16     -0.43578327219581
  17       1.2182569857092
  18    -1.8574219213891e-05
  19    -1.7964053419182e-16
  20    5.1201603204119e-06
  21    -0.00014740290839222
  22    0.0002723758425319
  23    1.5840199886718e-05
  24    -4.7247846245064e-06
  25    1.5640572779724e-06
  26    -2.429481860661e-05
  27    4.4388905497044e-05
  28    1.9152900249537e-06
  29    -5.2668429024375e-17
  30    2.2516818727957e-07
  31    0.0011819143753615
  32    -0.0023416620316398
  33    -7.0825593494769e-05
  34    -5.4004872954321e-17
  35    4.0145491058276e-05
  36    0.0041933600459484
  37    -0.0084539188624717
  38    -0.00052359395131116
  39    5.5429056978245e-18
  40    -0.0002059265797493
 Sym= A
 Ene=              17
 Spin= Alpha
 Occup=    0.00000
   1    -0.00022839780010957
   2    0.00045689476218935
   3    6.9735584859674e-08
   4    -6.5398997072042e-09
   5    -1.2100023385752e-08
   6    6.3693709064147e-06
   7    -1.201188357108e-05
   8    -6.4190787456096e-07
   9    -2.7473346980445e-07
  10    -8.5517399279824e-09
  11    -0.00022839780010941
  12    0.00045689476218914
  13    6.9735584950475e-08
  14    6.5398996602942e-09
  15    -1.2100023082151e-08
  16    9.8317274376078e-06
  17    -1.8574219213891e-05
  18       1.0000008005254
  19    2.5549933263512e-16
  20    -1.3958687039031e-07
  21    6.3693709065103e-06
  22    -1.2011883571215e-05
  23    -6.4190787418642e-07
  24    2.7473346992215e-07
  25    -8.5517399834318e-09
  26    1.0301977519318e-06
  27    -1.9152900250559e-06
  28    -6.998608522714e-08
  29    -1.1719629420911e-17
  30    8.9224771870122e-09
  31    -3.1229978228713e-05
  32    6.3418262168721e-05
  33    -2.7549566019495e-07
  34    -1.1245871194856e-16
  35    5.950075335962e-07
  36    -0.00026064456352674
  37    0.00052147701645898
  38    -5.8727853433907e-09
  39    -7.3210865234299e-17
  40    -7.5736292615625e-08
 Sym= A
 Ene=              18
 Spin= Alpha
 Occup=    0.00000
   1    0.00039738087252761
   2    -0.00079468217645668
   3    -4.7184102031702e-08
   4    1.0075314595722e-07
   5    3.6408980011834e-08
   6    5.9916140510939e-06
   7    -1.1355623615188e-05
   8    -8.3708344722004e-07
   9    -6.9356064217127e-14
  10    -2.2695934925921e-07
  11    -0.00039738087252765
  12    0.00079468217645696
  13    4.7184102549515e-08
  14    1.0075314573391e-07
  15    -3.6408979620209e-08
  16    4.4742567597119e-17
  17    -1.7964053372546e-16
  18    2.5574705492722e-16
  19       1.0000014498712
  20    -2.0867201960872e-17
  21    -5.9916140510448e-06
  22    1.1355623615043e-05
  23    8.3708344694392e-07
  24    -6.9608984165007e-14
  25    2.2695934885727e-07
  26    -1.8370844901564e-16
  27    6.6695554542075e-17
  28    4.9941276182713e-19
  29    -2.3041169371269e-08
  30    1.1204555244791e-16
  31    -2.7619114247291e-17
  32    -1.8707630979676e-17
  33    2.8302678455153e-17
  34    8.2709306268686e-07
  35    1.6179960368879e-16
  36    -1.1496543973861e-16
  37    1.6113479084614e-16
  38    5.8792155644761e-17
  39    1.0965988022498e-07
  40    -1.2166385547334e-16
 Sym= A
 Ene=              19
 Spin= Alpha
 Occup=    0.00000
   1    0.00012454061460414
   2    -0.00024902047754075
   3    -2.5481090660782e-08
   4    2.868341905309e-08
   5    3.2918535947886e-08
   6    -8.1480828615972e-07
   7    1.5640575683544e-06
   8    2.008284343371e-07
   9    -1.0607365037827e-07
  10    1.2482145973898e-07
  11    0.00012454061460407
  12    -0.00024902047754071
  13    -2.548109101154e-08
  14    -2.8683419146777e-08
  15    3.2918535596115e-08
  16    -2.691109877382e-06
  17    5.1201603204119e-06
  18    -1.3958687039717e-07
  19    -2.0719152414583e-17
  20       1.0000001958768
  21    -8.1480828614292e-07
  22    1.5640575683876e-06
  23    2.0082843428272e-07
  24    1.0607365091957e-07
  25    1.2482146053914e-07
  26    1.3050393039899e-07
  27    -2.2516818726468e-07
  28    8.9224775209952e-09
  29    2.2681892042458e-18
  30    2.5542576096686e-08
  31    2.4749217923615e-05
  32    -4.9677836662249e-05
  33    1.4936116704936e-07
  34    -2.5558963288255e-16
  35    3.4845105918888e-08
  36    -0.00010556946872154
  37    0.00021094734096638
  38    3.269061915366e-08
  39    -7.5238168787381e-16
  40    6.7876134895045e-08
 Sym= A
 Ene=              20
 Spin= Alpha
 Occup=    0.00000
   1    -0.0030932917582778
   2     0.005845715677914
   3    -0.00045834077348722
   4    8.9214205532879e-07
   5    -0.00012454059785437
   6    8.2111058689744e-05
   7    -0.00014740291972065
   8    2.0042046635878e-06
   9    -8.5118447709744e-06
  10    -8.1480829299995e-07
  11    1.3719498130603e-05
  12    -2.4294823656683e-05
  13    5.1509902457488e-07
  14    -8.9217765129959e-07
  15    -1.3050394121667e-07
  16    8.2111052434444e-05
  17    -0.0001474029083922
  18    6.3693709065103e-06
  19    -5.9916140510445e-06
  20    -8.1480828614293e-07
  21       1.2179334644941
  22     -0.43578327218907
  23    -4.9158625682938e-06
  24    8.5145261577267e-06
  25    -2.6911092565047e-06
  26    -0.0030932919906094
  27    0.0058457161344269
  28    0.00022839780010958
  29    0.00039738087252755
  30    -0.00012454061460417
  31    -0.00064468609236839
  32    0.0011832177459588
  33    -1.7605796708686e-05
  34    3.0494133601631e-05
  35    -1.9704416674589e-05
  36    -0.0022428238363181
  37    0.0041943180729331
  38    -0.00013090036681807
  39    0.00022672608286706
  40    0.00010287079214025
 Sym= A
 Ene=              21
 Spin= Alpha
 Occup=    0.00000
   1    0.0058457156779142
   2    -0.011925783864689
   3    0.00091666221954859
   4    -1.6586230033406e-06
   5    0.0002490204440413
   6    -0.00014740291972086
   7    0.00027237586394765
   8    -3.8283170286795e-06
   9    1.6080409546418e-05
  10    1.5640575942647e-06
  11    -2.4294823656659e-05
  12    4.4388914770611e-05
  13    -9.5764528788329e-07
  14    1.6586902404106e-06
  15    2.2516820403118e-07
  16    -0.00014740290823518
  17    0.00027237584253193
  18    -1.2011883571215e-05
  19    1.1355623615043e-05
  20    1.5640575683876e-06
  21     -0.43578327218907
  22       1.2182569856962
  23    9.2871073860551e-06
  24    -1.6085746514839e-05
  25    5.1201591318089e-06
  26     0.005845716134371
  27    -0.011925784836314
  28    -0.00045689476218932
  29    -0.00079468217645663
  30    0.00024902047754077
  31     0.001181914493468
  32    -0.0023416622659869
  33    3.5412802721007e-05
  34    -6.1336772014834e-05
  35    4.0145498233363e-05
  36    0.0041933603816208
  37    -0.0084539195609188
  38    0.00026179701111299
  39    -0.00045344571815362
  40    -0.00020592660785942
 Sym= A
 Ene=              22
 Spin= Alpha
 Occup=    0.00000
   1    0.00045834077348707
   2    -0.00091666221954835
   3    1.162618769184e-07
   4    -2.0322106851106e-08
   5    3.7581098979357e-08
   6    2.0042046635617e-06
   7    -3.8283170287334e-06
   8    3.2095387660368e-07
   9    -2.8117502638819e-07
  10    -1.9227672035504e-07
  11    -5.1509902459736e-07
  12    9.576452881402e-07
  13    -3.4777404143537e-08
  14    2.0327755290276e-08
  15    -4.4612405896362e-09
  16    -8.3735751901443e-06
  17    1.5840199886718e-05
  18    -6.4190787419976e-07
  19    8.3708344693854e-07
  20    2.0082843429614e-07
  21    -4.9158625682937e-06
  22    9.2871073860551e-06
  23       1.0000012875346
  24    2.8117496367522e-07
  25    6.9793348343696e-08
  26    -0.00022994303529925
  27    0.00045976758117141
  28    6.9735585029009e-08
  29    4.7184102310205e-08
  30    -2.5481090837805e-08
  31    1.5614992014496e-05
  32    -3.1709136839406e-05
  33    5.514458246568e-07