 &FCI NORB=  24,NELEC=24,MS2=0,
  ORBSYM=1,1,1,1,1,1,1,1,1,1,1,1,1,1,1,1,1,1,1,1,1,1,1,1,
  ISYM=1,
 &END
 0.3897454628271194    1    1    1    1
 -0.01692838521267432    2    1    1    1
 0.02877495177155112    2    1    2    1
 0.2539461342187573    2    2    1    1
 -0.01704630226067834    2    2    2    1
 0.3755077575920009    2    2    2    2
 -0.001551413714265851    3    1    1    1
 0.0004591757742421267    3    1    2    1
 -0.0002022896625396113    3    1    2    2
 6.725740941234624e-05    3    1    3    1
 0.0005349253040840877    3    2    1    1
 0.000420173816095376    3    2    2    1
 -0.001340296975229231    3    2    2    2
 5.075142237121715e-05    3    2    3    1
 9.533558133035936e-05    3    2    3    2
 0.07961115810765659    3    3    1    1
 0.003123868766448013    3    3    2    1
 0.06596594061419625    3    3    2    2
 -0.001381451166101193    3    3    3    1
 -0.001813783175286513    3    3    3    2
 0.4046757330779284    3    3    3    3
 0.003397511192236352    4    1    1    1
 -0.002234568059753922    4    1    2    1
 0.002137813888621551    4    1    2    2
 -7.744739588673177e-05    4    1    3    1
 -2.538576894276317e-05    4    1    3    2
 -0.0002798667359887408    4    1    3    3
 0.000408801164134666    4    1    4    1
 -0.00213170992872605    4    2    1    1
 -0.0004128023036058148    4    2    2    1
 0.005420259381813359    4    2    2    2
 7.359842661598974e-06    4    2    3    1
 -0.0001108020922926968    4    2    3    2
 -0.0004514327839744724    4    2    3    3
 0.0001665676285695713    4    2    4    1
 0.001486804078715453    4    2    4    2
 -0.0004513749413334848    4    3    1    1
 -4.295714565324401e-06    4    3    2    1
 -0.0004453072211021141    4    3    2    2
 -1.265920256619157e-05    4    3    3    1
 -1.798499585729611e-05    4    3    3    2
 0.0006716861101934842    4    3    3    3
 -8.331259345825843e-06    4    3    4    1
 -4.764118388706034e-05    4    3    4    2
 8.852393051211603e-06    4    3    4    3
 0.09900673577493695    4    4    1    1
 -0.003704160681553007    4    4    2    1
 0.1347345647069548    4    4    2    2
 -8.24866876281822e-05    4    4    3    1
 -0.0005619669936292212    4    4    3    2
 0.04406628699841238    4    4    3    3
 -0.001783361542632006    4    4    4    1
 -0.005701146512524807    4    4    4    2
 0.0006706898066820365    4    4    4    3
 0.4008169384093646    4    4    4    4
 0.001407452418786966    5    1    1    1
 -0.0005696953325134679    5    1    2    1
 0.0005274483542601332    5    1    2    2
 -4.060668062880544e-05    5    1    3    1
 -2.080385828135517e-05    5    1    3    2
 -0.0005055891195740247    5    1    3    3
 8.756230298637347e-05    5    1    4    1
 4.140073886698119e-07    5    1    4    2
 2.699242340761257e-06    5    1    4    3
 0.0001704484806865947    5    1    4    4
 6.452934125446085e-05    5    1    5    1
 -0.0006500675102568475    5    2    1    1
 -0.0002095344850128274    5    2    2    1
 0.001408418428961974    5    2    2    2
 -8.083904774214829e-06    5    2    3    1
 -3.987451719380593e-05    5    2    3    2
 -0.000726803645043283    5    2    3    3
 1.395004870658152e-05    5    2    4    1
 0.0001040160360403043    5    2    4    2
 2.711496991300345e-06    5    2    4    3
 0.0005710298481572873    5    2    4    4
 3.912876597000587e-05    5    2    5    1
 6.849292462434792e-05    5    2    5    2
 -0.002411637895363747    5    3    1    1
 -0.0003025524764717577    5    3    2    1
 -0.001906125228627004    5    3    2    2
 -0.0004488868058503622    5    3    3    1
 -0.0006706095879344412    5    3    3    2
 0.01415947733625898    5    3    3    3
 3.007826567964947e-05    5    3    4    1
 3.096478375478039e-05    5    3    4    2
 0.0001773939894870287    5    3    4    3
 -0.0008193257206696072    5    3    4    4
 0.0002743689403486142    5    3    5    1
 0.0001577147561988961    5    3    5    2
 0.02067321611070331    5    3    5    3
 0.0004409080815153469    5    4    1    1
 -6.798508351700606e-07    5    4    2    1
 0.0004065084739036757    5    4    2    2
 1.347520481092282e-06    5    4    3    1
 3.7337694090289e-06    5    4    3    2
 0.0001107818683959933    5    4    3    3
 1.130200777973547e-05    5    4    4    1
 4.695745414667989e-05    5    4    4    2
 -4.533818886430936e-06    5    4    4    3
 -0.0007015969050458901    5    4    4    4
 -9.575943320149122e-06    5    4    5    1
 -1.258568782569151e-05    5    4    5    2
 -4.375688478000471e-05    5    4    5    3
 7.427382117329993e-06    5    4    5    4
 0.06446229779427856    5    5    1    1
 0.002344504012757914    5    5    2    1
 0.0557147350004244    5    5    2    2
 -0.0002841393892781685    5    5    3    1
 -0.0007817286324514514    5    5    3    2
 0.2461365121170107    5    5    3    3
 -0.0002034791431005178    5    5    4    1
 -0.0003009973698936345    5    5    4    2
 0.0002962243626978631    5    5    4    3
 0.03920551800657867    5    5    4    4
 0.00154836487689311    5    5    5    1
 0.002015811006230469    5    5    5    2
 0.01309874470684974    5    5    5    3
 -0.0007015980254895175    5    5    5    4
 0.4008169196370378    5    5    5    5
 0.002736649817679627    6    1    1    1
 0.00484929711010813    6    1    2    1
 -0.001323795829176935    6    1    2    2
 9.422497496355309e-05    6    1    3    1
 4.840311617652069e-05    6    1    3    2
 -0.001373705175929053    6    1    3    3
 -0.0005872921007857431    6    1    4    1
 -0.0001444486333468376    6    1    4    2
 3.341343661260472e-07    6    1    4    3
 -0.0006303769323153137    6    1    4    4
 -0.0001572839997303709    6    1    5    1
 -4.651575862278775e-05    6    1    5    2
 4.994189045246131e-05    6    1    5    3
 3.741505509926702e-07    6    1    5    4
 -0.0006303765093649478    6    1    5    5
 0.003143971981732979    6    1    6    1
 0.008024442448558849    6    2    1    1
 -0.0001135221742054023    6    2    2    1
 -0.001987315715340885    6    2    2    2
 -6.130113343755648e-05    6    2    3    1
 6.402549297393623e-05    6    2    3    2
 -0.0009215194489634844    6    2    3    3
 -2.372656864846086e-06    6    2    4    1
 -0.0003938106016976318    6    2    4    2
 -9.092176990260095e-07    6    2    4    3
 -0.001300149794675507    6    2    4    4
 3.306245633086215e-05    6    2    5    1
 -8.055754116522129e-05    6    2    5    2
 1.466045987172486e-05    6    2    5    3
 3.007442886690457e-06    6    2    5    4
 -0.0004411456067528075    6    2    5    5
 0.001177996740215385    6    2    6    1
 0.001166522526609815    6    2    6    2
 -4.736088119288935e-05    6    3    1    1
 0.0001149085715886097    6    3    2    1
 0.0003710102879625931    6    3    2    2
 -5.768428604415622e-05    6    3    3    1
 -3.36973863083902e-05    6    3    3    2
 0.004434508354624648    6    3    3    3
 -1.048695729518881e-05    6    3    4    1
 -2.214902249165568e-06    6    3    4    2
 1.117692668416577e-05    6    3    4    3
 9.214044858473007e-05    6    3    4    4
 1.010868922066724e-05    6    3    5    1
 -5.885847810181659e-06    6    3    5    2
 -0.0004706273488610142    6    3    5    3
 2.219942424037241e-06    6    3    5    4
 -0.0003472539292571885    6    3    5    5
 0.0005740469149858512    6    3    6    1
 0.0005469522358484759    6    3    6    2
 0.0008961546627669988    6    3    6    3
 -0.001690007846492788    6    4    1    1
 4.602222722796262e-05    6    4    2    1
 -0.001585643999201392    6    4    2    2
 1.572395908778231e-05    6    4    3    1
 8.828599558378514e-06    6    4    3    2
 0.0003171146273490342    6    4    3    3
 -5.19251629599808e-05    6    4    4    1
 -0.000140716774035446    6    4    4    2
 9.001018876730649e-06    6    4    4    3
 0.001548350326198089    6    4    4    4
 -1.409700153945244e-05    6    4    5    1
 -6.917571515768791e-06    6    4    5    2
 -9.236005438727247e-06    6    4    5    3
 -9.575882168331017e-06    6    4    5    4
 0.000170450739561323    6    4    5    5
 -0.0001572835795481759    6    4    6    1
 -0.0001550256140006138    6    4    6    2
 -0.0001266007295336942    6    4    6    3
 6.452926827983608e-05    6    4    6    4
 -0.0010608125389964    6    5    1    1
 -0.0001609547944007743    6    5    2    1
 -0.0007729491896627952    6    5    2    2
 4.490843842175289e-05    6    5    3    1
 3.943932111333733e-05    6    5    3    2
 -0.0006938968704522551    6    5    3    3
 1.118836220170276e-05    6    5    4    1
 1.019492140632941e-05    6    5    4    2
 -9.699297706568487e-06    6    5    4    3
 -0.0002034788324428112    6    5    4    4
 -5.192525759938537e-05    6    5    5    1
 -4.134381554877247e-05    6    5    5    2
 -0.0009891470509987344    6    5    5    3
 1.130202379540378e-05    6    5    5    4
 -0.001783365329649853    6    5    5    5
 -0.000587292084170937    6    5    6    1
 -0.0004197196932425914    6    5    6    2
 -0.0004287634436789842    6    5    6    3
 8.756238709308386e-05    6    5    6    4
 0.0004088011028565721    6    5    6    5
 0.1809157593510557    6    6    1    1
 0.01247130243721515    6    6    2    1
 0.1232181999887742    6    6    2    2
 0.001546553647380001    6    6    3    1
 0.002082044532107967    6    6    3    2
 0.1400786075096626    6    6    3    3
 -0.001060812668123999    6    6    4    1
 -0.001556599451591575    6    6    4    2
 -0.000485264679534178    6    6    4    3
 0.0644622954017    6    6    4    4
 -0.001690012209932455    6    6    5    1
 -0.001767151791050306    6    6    5    2
 -0.006389172491323297    6    6    5    3
 0.0004409082429480726    6    6    5    4
 0.09900674162786481    6    6    5    5
 0.002736652170921203    6    6    6    1
 -0.002870030810338316    6    6    6    2
 -0.006883450301075358    6    6    6    3
 0.001407467045567061    6    6    6    4
 0.003397511818945327    6    6    6    5
 0.38974545885474    6    6    6    6
 -0.001141414812114055    7    1    1    1
 0.0008343517621843696    7    1    2    1
 -0.0007839847693613353    7    1    2    2
 3.962385582340188e-05    7    1    3    1
 2.155865160486314e-05    7    1    3    2
 0.0006923093001656225    7    1    3    3
 -0.0001167726335562528    7    1    4    1
 -1.315524802132612e-05    7    1    4    2
 -1.29449380300735e-06    7    1    4    3
 -0.0002460375804817378    7    1    4    4
 -5.228107261166701e-05    7    1    5    1
 -2.443360662956445e-05    7    1    5    2
 3.054776519980352e-05    7    1    5    3
 3.604842177395544e-06    7    1    5    4
 -0.0008740636637352981    7    1    5    5
 0.0002744795148080318    7    1    6    1
 -3.667998773883128e-07    7    1    6    2
 1.042551227749118e-05    7    1    6    3
 1.439683761860514e-05    7    1    6    4
 -4.864602020384837e-06    7    1    6    5
 0.002571981751137487    7    1    6    6
 0.0001236808330964414    7    1    7    1
 0.001172982651979867    7    2    1    1
 4.016067314148071e-05    7    2    2    1
 -0.001340306985249066    7    2    2    2
 -3.472253099563264e-06    7    2    3    1
 3.086383339412473e-05    7    2    3    2
 0.0006756266651173882    7    2    3    3
 -5.202530155532532e-06    7    2    4    1
 -0.0001108021212615868    7    2    4    2
 -5.965030550380217e-07    7    2    4    3
 -0.0005619693377176554    7    2    4    4
 -7.879645334187559e-06    7    2    5    1
 -3.987457242733864e-05    7    2    5    2
 0.0001029768340530707    7    2    5    3
 3.733772238941128e-06    7    2    5    4
 -0.0007817181903585627    7    2    5    5
 6.616166809164442e-05    7    2    6    1
 0.0001145664251473648    7    2    6    2
 2.211499547254974e-05    7    2    6    3
 3.954081931739576e-06    7    2    6    4
 -1.726070666280536e-05    7    2    6    5
 0.001950051602188909    7    2    6    6
 7.063845713287807e-05    7    2    7    1
 9.533545310522163e-05    7    2    7    2
 0.004354695561726758    7    3    1    1
 0.0003841279898244398    7    3    2    1
 0.003133606114244993    7    3    2    2
 0.0002749746415130946    7    3    3    1
 0.0004614670391464863    7    3    3    2
 0.01275737183041265    7    3    3    3
 -3.9415178874745e-05    7    3    4    1
 -5.174301395362171e-05    7    3    4    2
 -0.00010750603003051    7    3    4    3
 0.001371555186506678    7    3    4    4
 -0.0002647045236937846    7    3    5    1
 -0.0003014725418980942    7    3    5    2
 -0.009405622690602642    7    3    5    3
 8.206642463784371e-05    7    3    5    4
 -0.01920445956715083    7    3    5    5
 -0.000148139131446853    7    3    6    1
 -7.389158054435638e-05    7    3    6    2
 0.0008621183918755268    7    3    6    3
 2.891159389040125e-05    7    3    6    4
 0.0003014336906399283    7    3    6    5
 0.01169997533007312    7    3    6    6
 0.0005837650109544175    7    3    7    1
 0.0004614644966712544    7    3    7    2
 0.01805674443317756    7    3    7    3
 -0.0005036655794503042    7    4    1    1
 6.048851458135073e-06    7    4    2    1
 -0.0004453054166223857    7    4    2    2
 1.825115393556656e-06    7    4    3    1
 -5.965243786681166e-07    7    4    3    2
 -7.546065225273639e-05    7    4    3    3
 -1.453061772749448e-05    7    4    4    1
 -4.764122519679014e-05    7    4    4    2
 3.713853263777991e-06    7    4    4    3
 0.0006706946923385338    7    4    4    4
 -2.062015796064868e-08    7    4    5    1
 2.711516184250425e-06    7    4    5    2
 -3.958836102447136e-05    7    4    5    3
 -4.533828450975554e-06    7    4    5    4
 0.0002962192691840957    7    4    5    5
 -3.501838863992297e-06    7    4    6    1
 -6.463279552564407e-06    7    4    6    2
 -6.690860073949482e-06    7    4    6    3
 1.067242643030538e-05    7    4    6    4
 6.419065105289972e-06    7    4    6    5
 -0.0004319346315150024    7    4    6    6
 -1.626730403731289e-05    7    4    7    1
 -1.798492146519737e-05    7    4    7    2
 -0.0001075051863126056    7    4    7    3
 8.852375853813683e-06    7    4    7    4
 -0.002904846317567313    7    5    1    1
 -0.0001644119395336999    7    5    2    1
 -0.001906129356527218    7    5    2    2
 0.0001111802406192989    7    5    3    1
 0.0001029762279047032    7    5    3    2
 -0.02107554909092177    7    5    3    3
 1.666614392378416e-05    7    5    4    1
 3.096484238240103e-05    7    5    4    2
 -3.958827750471531e-05    7    5    4    3
 -0.0008193280085821452    7    5    4    4
 3.529685659871009e-07    7    5    5    1
 0.0001577181994619342    7    5    5    2
 -0.009791108136690967    7    5    5    3
 -4.375818095691366e-05    7    5    5    4
 0.0130987983084701    7    5    5    5
 0.0001063589129493453    7    5    6    1
 6.738695166867643e-05    7    5    6    2
 -0.0004760199910853216    7    5    6    3
 -2.461764027296562e-05    7    5    6    4
 0.0006721901544535837    7    5    6    5
 -0.007663061421138467    7    5    6    6
 -0.0007369162274356168    7    5    7    1
 -0.0006706078120728596    7    5    7    2
 -0.009405616546363699    7    5    7    3
 0.0001773932162441689    7    5    7    4
 0.02067321775916104    7    5    7    5
 0.002367820441593027    7    6    1    1
 0.0002617094257017135    7    6    2    1
 0.001341389143412743    7    6    2    2
 -3.576561068851609e-05    7    6    3    1
 -3.201787254051569e-05    7    6    3    2
 -0.002015709513599457    7    6    3    3
 -1.597814693272918e-05    7    6    4    1
 -2.0691794588146e-05    7    6    4    2
 5.362690794180381e-06    7    6    4    3
 0.0003599273525973991    7    6    4    4
 3.551682586638532e-05    7    6    5    1
 3.36623370677764e-05    7    6    5    2
 0.0003104666034645039    7    6    5    3
 -7.943381256295077e-06    7    6    5    4
 0.001437657533634721    7    6    5    5
 0.0008459504070777988    7    6    6    1
 0.0004823904453490655    7    6    6    2
 0.0002752354030001401    7    6    6    3
 -8.995319994789452e-05    7    6    6    4
 -0.0003833875150761843    7    6    6    5
 -0.001897686015388586    7    6    6    6
 -0.0001098943531393119    7    6    7    1
 -8.672579651677794e-05    7    6    7    2
 -0.001786829078703041    7    6    7    3
 2.134038166746173e-05    7    6    7    4
 0.001752240276127672    7    6    7    5
 0.000880313172921764    7    6    7    6
 0.07706758230362754    7    7    1    1
 0.003762984040825136    7    7    2    1
 0.06596593166077817    7    7    2    2
 0.000758858362839257    7    7    3    1
 0.0006756191231274742    7    7    3    2
 0.239377780912829    7    7    3    3
 -0.0003481123043764313    7    7    4    1
 -0.0004514326185961588    7    7    4    2
 -7.545679373757891e-05    7    7    4    3
 0.04406628259948325    7    7    4    4
 -0.0009949289944986407    7    7    5    1
 -0.0007267998383694162    7    7    5    2
 -0.0210755494422205    7    7    5    3
 0.0001107803916806918    7    7    5    4
 0.2461365118770969    7    7    5    5
 -0.0007904032635854463    7    7    6    1
 -0.0004509386536048505    7    7    6    2
 9.802462566648211e-05    7    7    6    3
 0.0002052293481485109    7    7    6    4
 0.002506991267417982    7    7    6    5
 0.1266897952564079    7    7    6    6
 -0.001306404484264794    7    7    7    1
 -0.001813775647181413    7    7    7    2
 0.01275745720073619    7    7    7    3
 0.0006716809476284809    7    7    7    4
 0.01415942290117077    7    7    7    5
 -0.001528052605711247    7    7    7    6
 0.4046757320679276    7    7    7    7
 -0.003843391570414749    8    1    1    1
 0.002146319871510221    8    1    2    1
 0.0007044450010455072    8    1    2    2
 0.0001427625139871762    8    1    3    1
 3.10868428391772e-05    8    1    3    2
 0.0003564211035448293    8    1    3    3
 -0.0003288449796867806    8    1    4    1
 1.075022816507078e-05    8    1    4    2
 -4.457603051389557e-06    8    1    4    3
 3.291438165741835e-05    8    1    4    4
 -0.0001309415083505747    8    1    5    1
 -4.472004016847437e-06    8    1    5    2
 -1.116996960117245e-05    8    1    5    3
 3.906658317900452e-07    8    1    5    4
 3.291254095104482e-05    8    1    5    5
 0.0008310050435858601    8    1    6    1
 -5.408261473874504e-05    8    1    6    2
 -0.0001640204477503832    8    1    6    3
 3.057814114093711e-05    8    1    6    4
 6.542022888626637e-05    8    1    6    5
 0.004994946131540768    8    1    6    6
 0.0001530252061589946    8    1    7    1
 -1.574715116947372e-05    8    1    7    2
 6.151251616581563e-05    8    1    7    3
 3.162516513317786e-06    8    1    7    4
 -5.931529754406319e-05    8    1    7    5
 -1.31292867965837e-05    8    1    7    6
 -3.695697322015296e-05    8    1    7    7
 0.001195175140406501    8    1    8    1
 0.004125851669754637    8    2    1    1
 0.00206197014994719    8    2    2    1
 -0.001987316091928074    8    2    2    2
 2.508479466654237e-05    8    2    3    1
 0.0001145665892303606    8    2    3    2
 -0.0004509410150303039    8    2    3    3
 -0.000115092613953824    8    2    4    1
 -0.0003938111086922623    8    2    4    2
 -6.46328605441469e-06    8    2    4    3
 -0.001300152026835568    8    2    4    4
 -1.70084531485324e-05    8    2    5    1
 -8.055771368413105e-05    8    2    5    2
 6.738701311051307e-05    8    2    5    3
 3.007452734633155e-06    8    2    5    4
 -0.0004411465722388782    8    2    5    5
 0.0005011776941006974    8    2    6    1
 0.0003378217449559533    8    2    6    2
 -0.0001356992611581081    8    2    6    3
 -4.340572651820747e-06    8    2    6    4
 2.729859224942272e-05    8    2    6    5
 0.00410720963657804    8    2    6    6
 2.738544935902477e-05    8    2    7    1
 6.402571085075593e-05    8    2    7    2
 -7.389221904089251e-05    8    2    7    3
 -9.092232366503237e-07    8    2    7    4
 1.466088687977841e-05    8    2    7    5
 4.726926560035989e-05    8    2    7    6
 -0.0009215204337137573    8    2    7    7
 0.0007357903089608259    8    2    8    1
 0.001166523189331484    8    2    8    2
 0.002021584517242585    8    3    1    1
 0.0002363875708592145    8    3    2    1
 0.001341388862838741    8    3    2    2
 -4.747736416041994e-05    8    3    3    1
 -8.672630202121851e-05    8    3    3    2
 -0.001528046975264491    8    3    3    3
 -1.905823045531613e-05    8    3    4    1
 -2.069177219857272e-05    8    3    4    2
 2.134052687342061e-05    8    3    4    3
 0.0003599270441686622    8    3    4    4
 2.94094356048443e-05    8    3    5    1
 3.36623690168299e-05    8    3    5    2
 0.001752245592859833    8    3    5    3
 -7.943378712611858e-06    8    3    5    4
 0.001437670017507802    8    3    5    5
 0.0001991051913236855    8    3    6    1
 4.72687404225225e-05    8    3    6    2
 -0.0003449625976085202    8    3    6    3
 2.1938569318178e-06    8    3    6    4
 1.119782327627106e-08    8    3    6    5
 0.001225131406503575    8    3    6    6
 -3.558940604633178e-05    8    3    7    1
 -3.201790734051945e-05    8    3    7    2
 -0.001786833547215615    8    3    7    3
 5.362699569400176e-06    8    3    7    4
 0.0003104663740343979    8    3    7    5
 0.0001699259628015761    8    3    7    6
 -0.002015708106344769    8    3    7    7
 0.0002829591395131168    8    3    8    1
 0.0004823913665604973    8    3    8    2
 0.0008803167158745281    8    3    8    3
 -0.001503816966399194    8    4    1    1
 1.529026990776384e-05    8    4    2    1
 -0.001585646109729604    8    4    2    2
 2.529109023680741e-06    8    4    3    1
 3.954042351373229e-06    8    4    3    2
 0.0002052307209543108    8    4    3    3
 -2.115050897964849e-05    8    4    4    1
 -0.0001407169915376397    8    4    4    2
 1.067243338489065e-05    8    4    4    3
 0.001548351711936302    8    4    4    4
 -7.140315064114581e-06    8    4    5    1
 -6.917574197826073e-06    8    4    5    2
 -2.461768731630315e-05    8    4    5    3
 -9.575897357926065e-06    8    4    5    4
 0.0001704514928407355    8    4    5    5
 -1.777644698067594e-05    8    4    6    1
 -4.340619489602651e-06    8    4    6    2
 4.054844324642682e-05    8    4    6    3
 2.671986706481724e-05    8    4    6    4
 -1.570802145778889e-05    8    4    6    5
 -0.000448936438736173    8    4    6    6
 1.080588248420831e-05    8    4    7    1
 8.828645619180471e-06    8    4    7    2
 2.89118307230175e-05    8    4    7    3
 9.001038257398881e-06    8    4    7    4
 -9.236171093817581e-06    8    4    7    5
 2.193705561565249e-06    8    4    7    6
 0.0003171156303306778    8    4    7    7
 -0.0001309415072830433    8    4    8    1
 -0.0001550256293117995    8    4    8    2
 -8.995351469630687e-05    8    4    8    3
 6.452937263893431e-05    8    4    8    4
 -0.001382003478580589    8    5    1    1
 -0.0001049573510053099    8    5    2    1
 -0.0007729515687878188    8    5    2    2
 -2.10052192721989e-05    8    5    3    1
 -1.726092556741178e-05    8    5    3    2
 0.002507003497899763    8    5    3    3
 6.621436133713772e-06    8    5    4    1
 1.019495264680457e-05    8    5    4    2
 6.419144145910402e-06    8    5    4    3
 -0.000203479763636651    8    5    4    4
 -2.115048986052915e-05    8    5    5    1
 -4.13438957921154e-05    8    5    5    2
 0.0006721953951058561    8    5    5    3
 1.130206570471698e-05    8    5    5    4
 -0.001783357283469945    8    5    5    5
 -8.06126811863537e-05    8    5    6    1
 2.72985713657294e-05    8    5    6    2
 0.0002189620995046094    8    5    6    3
 -1.570804834988493e-05    8    5    6    4
 -0.0001034218505986547    8    5    6    5
 -0.00187774772352739    8    5    6    6
 2.986914613036379e-05    8    5    7    1
 3.943918313875377e-05    8    5    7    2
 0.0003014308828041977    8    5    7    3
 -9.699257475316676e-06    8    5    7    4
 -0.0009891493402840413    8    5    7    5
 1.108738822681952e-08    8    5    7    6
 -0.0006938931789771598    8    5    7    7
 -0.0003288445474074057    8    5    8    1
 -0.0004197194216258516    8    5    8    2
 -0.0003833878005791834    8    5    8    3
 8.756236439971463e-05    8    5    8    4
 0.0004088011065403311    8    5    8    5
 0.02136759728399932    8    6    1    1
 0.002889856023157643    8    6    2    1
 0.01239353611944835    8    6    2    2
 -3.522634552315054e-05    8    6    3    1
 2.049106458294793e-05    8    6    3    2
 -0.01226103443784619    8    6    3    3
 -0.0002464163243597803    8    6    4    1
 -0.0002583667975545219    8    6    4    2
 -1.060808352099892e-05    8    6    4    3
 0.003540558537527792    8    6    4    4
 1.402096503572094e-05    8    6    5    1
 7.230894535064102e-06    8    6    5    2
 0.001001674576176877    8    6    5    3
 2.953925416647803e-06    8    6    5    4
 -0.007121993066321461    8    6    5    5
 0.004597932196336136    8    6    6    1
 0.002337607582421351    8    6    6    2
 0.000919936090620712    8    6    6    3
 -0.0003505986077652598    8    6    6    4
 -0.001537829036368497    8    6    6    5
 0.01381423184223264    8    6    6    6
 6.482891216677726e-05    8    6    7    1
 2.04908722577173e-05    8    6    7    2
 -0.001786082210356133    8    6    7    3
 -1.060787860925422e-05    8    6    7    4
 0.001001676612466185    8    6    7    5
 0.00266637952596789    8    6    7    6
 -0.01226102026716272    8    6    7    7
 0.001447543921139584    8    6    8    1
 0.00233760826196042    8    6    8    2
 0.00266638154221073    8    6    8    3
 -0.0003505992864726749    8    6    8    4
 -0.001537829315905567    8    6    8    5
 0.02322997816837812    8    6    8    6
 0.001128093829221515    8    7    1    1
 -5.268666945652231e-06    8    7    2    1
 0.0003710130379083744    8    7    2    2
 2.667946654977144e-05    8    7    3    1
 2.211515064769122e-05    8    7    3    2
 9.801241682181216e-05    8    7    3    3
 4.762759713985966e-06    8    7    4    1
 -2.214942929389106e-06    8    7    4    2
 -6.690909340848504e-06    8    7    4    3
 9.214161359699952e-05    8    7    4    4
 -1.829997813198783e-05    8    7    5    1
 -5.885921997007713e-06    8    7    5    2
 -0.0004760215079105155    8    7    5    3
 2.219957341465607e-06    8    7    5    4
 -0.0003472643686051917    8    7    5    5
 -3.409233754354625e-05    8    7    6    1
 -0.0001356986334248852    8    7    6    2
 -0.0002390649043725566    8    7    6    3
 4.054833081245046e-05    8    7    6    4
 0.000218961587242043    8    7    6    5
 0.003023731091601096    8    7    6    6
 2.448828769016048e-06    8    7    7    1
 -3.369727409021803e-05    8    7    7    2
 0.0008621194949872813    8    7    7    3
 1.117687935437114e-05    8    7    7    4
 -0.0004706264550810187    8    7    7    5
 -0.0003449604236759515    8    7    7    6
 0.004434492398885609    8    7    7    7
 0.0005338167995118974    8    7    8    1
 0.0005469508893081998    8    7    8    2
 0.0002752355206164777    8    7    8    3
 -0.0001266004213374859    8    7    8    4
 -0.0004287623139858956    8    7    8    5
 0.0009199381333812108    8    7    8    6
 0.0008961503841313416    8    7    8    7
 0.1556511621249312    8    8    1    1
 0.01453128275655199    8    8    2    1
 0.1232182325154436    8    8    2    2
 0.001189792638033572    8    8    3    1
 0.001950053598474027    8    8    3    2
 0.1266898222298748    8    8    3    3
 -0.001382001042347943    8    8    4    1
 -0.001556600209159039    8    8    4    2
 -0.0004319346472319174    8    8    4    3
 0.06446230347069661    8    8    4    4
 -0.001503818460151203    8    8    5    1
 -0.001767151416831649    8    8    5    2
 -0.007663050288943913    8    8    5    3
 0.0004409082030936371    8    8    5    4
 0.09900672422245739    8    8    5    5
 0.006081240662343394    8    8    6    1
 0.004107208789951401    8    8    6    2
 0.003023725503511596    8    8    6    3
 -0.0004489370896377401    8    8    6    4
 -0.001877742330052266    8    8    6    5
 0.2423179603491591    8    8    6    6
 0.002379314281216378    8    8    7    1
 0.002082042497339215    8    8    7    2
 0.01169998331804875    8    8    7    3
 -0.0004852649343886439    8    8    7    4
 -0.006389188634281119    8    8    7    5
 0.001225137348935242    8    8    7    6
 0.1400785290089314    8    8    7    7
 -0.003843384304469798    8    8    8    1
 -0.002870019613723841    8    8    8    2
 -0.001897697377502137    8    8    8    3
 0.001407465737870403    8    8    8    4
 0.003397497407338966    8    8    8    5
 0.01381424965342488    8    8    8    6
 -0.006883421595371909    8    8    8    7
 0.3897454211300639    8    8    8    8
 -0.006883442318743252    9    1    1    1
 0.002162372441993694    9    1    2    1
 0.00170740220069469    9    1    2    2
 0.0001301692940417755    9    1    3    1
 -2.933664504868493e-05    9    1    3    2
 7.433294787231739e-05    9    1    3    3
 -0.0004287630347808101    9    1    4    1
 0.000335598035119948    9    1    4    2
 -5.330197429160615e-06    9    1    4    3
 -0.000347259158346009    9    1    4    4
 -0.0001266003580156799    9    1    5    1
 4.323171734515321e-05    9    1    5    2
 -2.517558693917659e-05    9    1    5    3
 2.219957485556055e-06    9    1    5    4
 9.214068858842847e-05    9    1    5    5
 0.0005740463102428833    9    1    6    1
 -0.0002429134475666294    9    1    6    2
 2.898602674279283e-05    9    1    6    3
 1.010865513482018e-05    9    1    6    4
 -1.048696601392982e-05    9    1    6    5
 -4.73608928927604e-05    9    1    6    6
 0.0001444348497178056    9    1    7    1
 -6.100161776625693e-05    9    1    7    2
 1.996762027878496e-05    9    1    7    3
 7.972389275167022e-07    9    1    7    4
 2.437479749011289e-06    9    1    7    5
 -2.373718026101704e-06    9    1    7    6
 0.0002171318551876311    9    1    7    7
 0.0005338180337545854    9    1    8    1
 -5.84572719337939e-05    9    1    8    2