 &FCI NORB=  30,NELEC=12,MS2=0,
  ORBSYM=1,1,1,1,1,1,1,1,1,1,1,1,1,1,1,1,1,1,1,1,1,1,1,1,1,1,1,1,1,1,
  ISYM=1,
 &END
 1.686794332126215    1    1    1    1
 0.06195244187238907    1    1    2    1
 0.6461869220171932    1    1    2    2
 1.104396432285513    1    1    3    3
 1.104396432285515    1    1    4    4
 1.10439643228551    1    1    5    5
 0.06285122936785321    1    1    6    6
 0.06285122936785316    1    1    7    7
 -0.0009934001721916771    1    1    8    6
 -0.001733418783717618    1    1    8    7
 0.06294859398270465    1    1    8    8
 0.06280254706042761    1    1    9    9
 0.06280254706042761    1    1   10   10
 0.06285122936785309    1    1   11   11
 0.06285122936785301    1    1   12   12
 0.06280254706042752    1    1   13   13
 -0.0009934001721916912    1    1   14   11
 -0.001733418783717611    1    1   14   12
 0.06294859398270446    1    1   14   14
 0.06280254706042755    1    1   15   15
 0.04444253049192011    1    1   16   16
 0.04444253049192008    1    1   17   17
 -0.0003512199990943098    1    1   18   16
 -0.0006128560883014288    1    1   18   17
 0.04445113638934621    1    1   18   18
 -0.0003512199990943094    1    1   19   16
 -0.0006128560883014354    1    1   19   17
 2.581769227838948e-05    1    1   19   18
 0.04445113638934622    1    1   19   19
 0.04442531869706788    1    1   20   20
 0.06285122946270202    1    1   21   21
 0.062851229462702    1    1   22   22
 -0.0004967000871764664    1    1   23   21
 -0.0008667093937444424    1    1   23   22
 0.06283905888572888    1    1   23   23
 -0.0004967000871764642    1    1   24   21
 -0.0008667093937444384    1    1   24   22
 3.651173067299005e-05    1    1   24   23
 0.06283905888572888    1    1   24   24
 -0.0007024400009005796    1    1   25   21
 -0.001225712181335068    1    1   25   22
 5.163538479049632e-05    1    1   25   23
 5.163538479047385e-05    1    1   25   24
 0.06287557061664806    1    1   25   25
 0.06285122946270183    1    1   26   26
 0.06285122946270189    1    1   27   27
 -0.0004967000871764666    1    1   28   26
 -0.0008667093937444452    1    1   28   27
 0.06283905888572897    1    1   28   28
 -0.0004967000871764607    1    1   29   26
 -0.0008667093937444408    1    1   29   27
 3.651173067297855e-05    1    1   29   28
 0.06283905888572894    1    1   29   29
 0.0007024400009005803    1    1   30   26
 0.001225712181335066    1    1   30   27
 -5.163538479046262e-05    1    1   30   28
 -5.163538479047238e-05    1    1   30   29
 0.06287557061664797    1    1   30   30
 0.06195244187238903    2    1    1    1
 0.01609965082267764    2    1    2    1
 0.02953550710994271    2    1    2    2
 0.07725646222379823    2    1    3    3
 0.07725646222379839    2    1    4    4
 0.07725646222379809    2    1    5    5
 0.6461869220171931    2    2    1    1
 0.02953550710994268    2    2    2    1
 0.5283760352114115    2    2    2    2
 0.631818805270004    2    2    3    3
 0.6318188052700056    2    2    4    4
 0.6318188052700029    2    2    5    5
 0.06285122936785323    2    2    6    6
 0.06285122936785317    2    2    7    7
 -0.0009934001721916758    2    2    8    6
 -0.001733418783717619    2    2    8    7
 0.06294859398270465    2    2    8    8
 0.06280254706042761    2    2    9    9
 0.06280254706042761    2    2   10   10
 0.06285122936785312    2    2   11   11
 0.06285122936785301    2    2   12   12
 0.06280254706042752    2    2   13   13
 -0.0009934001721916899    2    2   14   11
 -0.001733418783717611    2    2   14   12
 0.06294859398270446    2    2   14   14
 0.06280254706042755    2    2   15   15
 0.0444425304919201    2    2   16   16
 0.04444253049192007    2    2   17   17
 -0.0003512199990943095    2    2   18   16
 -0.0006128560883014288    2    2   18   17
 0.0444511363893462    2    2   18   18
 -0.0003512199990943091    2    2   19   16
 -0.0006128560883014354    2    2   19   17
 2.581769227838948e-05    2    2   19   18
 0.04445113638934621    2    2   19   19
 0.04442531869706785    2    2   20   20
 0.062851229462702    2    2   21   21
 0.06285122946270197    2    2   22   22
 -0.000496700087176466    2    2   23   21
 -0.0008667093937444427    2    2   23   22
 0.06283905888572885    2    2   23   23
 -0.0004967000871764637    2    2   24   21
 -0.0008667093937444385    2    2   24   22
 3.651173067299002e-05    2    2   24   23
 0.06283905888572885    2    2   24   24
 -0.0007024400009005796    2    2   25   21
 -0.001225712181335067    2    2   25   22
 5.163538479049631e-05    2    2   25   23
 5.163538479047384e-05    2    2   25   24
 0.06287557061664804    2    2   25   25
 0.06285122946270182    2    2   26   26
 0.06285122946270184    2    2   27   27
 -0.0004967000871764661    2    2   28   26
 -0.0008667093937444454    2    2   28   27
 0.06283905888572894    2    2   28   28
 -0.0004967000871764603    2    2   29   26
 -0.000866709393744441    2    2   29   27
 3.651173067297853e-05    2    2   29   28
 0.06283905888572891    2    2   29   29
 0.0007024400009005802    2    2   30   26
 0.001225712181335066    2    2   30   27
 -5.16353847904626e-05    2    2   30   28
 -5.163538479047236e-05    2    2   30   29
 0.06287557061664796    2    2   30   30
 0.136426017833379    3    1    3    1
 0.07540390134933619    3    1    3    2
 0.0009934001721916719    3    1    6    6
 0.0009934001721916689    3    1    7    7
 -3.140253299850906e-05    3    1    8    6
 -5.479538063279618e-05    3    1    8    7
 0.0009980168849973623    3    1    8    8
 0.0009910918157888249    3    1    9    9
 0.0009910918157888249    3    1   10   10
 1.570126649925462e-05    3    1   13   11
 2.739769031639824e-05    3    1   13   12
 -2.30835640284536e-06    3    1   14   13
 0.0003512199990943076    3    1   16   16
 0.0003512199990943069    3    1   17   17
 -2.775618003710007e-06    3    1   18   16
 -4.843273152893444e-06    3    1   18   17
 0.0003510159672860758    3    1   18   18
 -8.326854011130051e-06    3    1   19   16
 -1.452981945868061e-05    3    1   19   17
 6.120954246929468e-07    3    1   19   18
 0.0003518320945189997    3    1   19   19
 0.0003508119354778451    3    1   20   20
 0.0004967000871764667    3    1   21   21
 0.000496700087176466    3    1   22   22
 3.925316662429115e-06    3    1   23   21
 6.849422644736077e-06    3    1   23   22
 0.0004946802753110528    3    1   23   23
 -1.177594990790978e-05    3    1   24   21
 -2.054826779569961e-05    3    1   24   22
 2.885445494229472e-07    3    1   24   23
 0.0004969886317258875    3    1   24   24
 -1.665370809765637e-05    3    1   25   21
 -2.905963904892278e-05    3    1   25   22
 4.080636158306105e-07    3    1   25   23
 2.040318092905981e-06    3    1   25   24
 0.0004984313544924531    3    1   25   25
 0.0004967000871764652    3    1   26   26
 0.0004967000871764652    3    1   27   27
 3.925316662429124e-06    3    1   28   26
 6.849422644736068e-06    3    1   28   27
 0.0004946802753110534    3    1   28   28
 -1.177594990790976e-05    3    1   29   26
 -2.054826779569963e-05    3    1   29   27
 2.885445494228563e-07    3    1   29   28
 0.0004969886317258879    3    1   29   29
 1.665370809765637e-05    3    1   30   26
 2.905963904892275e-05    3    1   30   27
 -4.080636158303444e-07    3    1   30   28
 -2.040318092905969e-06    3    1   30   29
 0.0004984313544924525    3    1   30   30
 0.07540390134933617    3    2    3    1
 0.07525188015951492    3    2    3    2
 0.00173341878371762    3    2    6    6
 0.001733418783717619    3    2    7    7
 -5.47953806327963e-05    3    2    8    6
 -9.561438049712651e-05    3    2    8    7
 0.00174147464772936    3    2    8    8
 0.001729390851711749    3    2    9    9
 0.001729390851711749    3    2   10   10
 2.739769031639829e-05    3    2   13   11
 4.780719024856355e-05    3    2   13   12
 -4.027932005869381e-06    3    2   14   13
 0.0006128560883014331    3    2   16   16
 0.0006128560883014326    3    2   17   17
 -4.843273152893505e-06    3    2   18   16
 -8.451197103558505e-06    3    2   18   17
 0.0006125000660469934    3    2   18   18
 -1.452981945868061e-05    3    2   19   16
 -2.535359131067596e-05    3    2   19   17
 1.068066763316049e-06    3    2   19   18
 0.0006139241550647478    3    2   19   19
 0.0006121440437925551    3    2   20   20
 0.0008667093937444404    3    2   21   21
 0.000866709393744439    3    2   22   22
 6.849422644736126e-06    3    2   23   21
 1.195179767667236e-05    3    2   23   22
 0.000863184953216754    3    2   23   23
 -2.054826779569956e-05    3    2   24   21
 -3.585539278832854e-05    3    2   24   22
 5.034914991061317e-07    3    2   24   23
 0.0008672128852435435    3    2   24   24
 -2.905963904892275e-05    3    2   25   21
 -5.070718285091829e-05    3    2   25   22
 7.120445077756965e-07    3    2   25   23
 3.560222562876453e-06    3    2   25   24
 0.0008697303427730147    3    2   25   25
 0.0008667093937444379    3    2   26   26
 0.0008667093937444377    3    2   27   27
 6.849422644736138e-06    3    2   28   26
 1.195179767667235e-05    3    2   28   27
 0.0008631849532167553    3    2   28   28
 -2.054826779569952e-05    3    2   29   26
 -3.585539278832857e-05    3    2   29   27
 5.034914991059734e-07    3    2   29   28
 0.0008672128852435442    3    2   29   29
 2.905963904892275e-05    3    2   30   26
 5.070718285091825e-05    3    2   30   27
 -7.120445077752322e-07    3    2   30   28
 -3.560222562876432e-06    3    2   30   29
 0.0008697303427730138    3    2   30   30
 1.104396432285513    3    3    1    1
 0.07725646222379806    3    3    2    1
 0.6318188052700041    3    3    2    2
 1.040530899123284    3    3    3    3
 0.9131189522918639    3    3    4    4
 0.9131189522918599    3    3    5    5
 0.0629485939827045    3    3    6    6
 0.06294859398270443    3    3    7    7
 -0.000998016884997364    3    3    8    6
 -0.001741474647729354    3    3    8    7
 0.06304686357920737    3    3    8    8
 0.06289945918445311    3    3    9    9
 0.06289945918445311    3    3   10   10
 0.06280254706042741    3    3   11   11
 0.0628025470604273    3    3   12   12
 0.06275420412112111    3    3   13   13
 -0.0009910918157888416    3    3   14   11
 -0.001729390851711738    3    3   14   12
 0.062899459184453    3    3   14   14
 0.06275397787570827    3    3   15   15
 0.04445113638934619    3    3   16   16
 0.04445113638934616    3    3   17   17
 -0.0003510159672860773    3    3   18   16
 -0.0006125000660469891    3    3   18   17
 0.04445967729503313    3    3   18   18
 -0.0003518320945190008    3    3   19   16
 -0.00061392415506475    3    3   19   17
 2.584268910114777e-05    3    3   19   18
 0.04445983727469879    3    3   19   19
 0.04443389459830663    3    3   20   20
 0.06283905888572895    3    3   21   21
 0.06283905888572888    3    3   22   22
 -0.0004946802753110524    3    3   23   21
 -0.0008631849532167578    3    3   23   22
 0.06282662671249578    3    3   23   23
 -0.0004969886317258846    3    3   24   21
 -0.0008672128852435434    3    3   24   22
 3.633497644273268e-05    3    3   24   23
 0.06282696608061669    3    3   24   24
 -0.0007028480645164077    3    3   25   21
 -0.001226424225842841    3    3   25   22
 5.138541656043833e-05    3    3   25   23
 5.178536572756539e-05    3    3   25   24
 0.06286358386407408    3    3   25   25
 0.06283905888572877    3    3   26   26
 0.06283905888572877    3    3   27   27
 -0.0004946802753110527    3    3   28   26
 -0.0008631849532167605    3    3   28   27
 0.06282662671249586    3    3   28   28
 -0.0004969886317258814    3    3   29   26
 -0.0008672128852435457    3    3   29   27
 3.633497644272119e-05    3    3   29   28
 0.06282696608061675    3    3   29   29
 0.0007028480645164083    3    3   30   26
 0.001226424225842839    3    3   30   27
 -5.138541656040464e-05    3    3   30   28
 -5.178536572756391e-05    3    3   30   29
 0.06286358386407399    3    3   30   30
 0.1364260178333793    4    1    4    1
 0.07540390134933633    4    1    4    2
 1.570126649925464e-05    4    1    9    6
 2.73976903163983e-05    4    1    9    7
 -2.308356402845365e-06    4    1    9    8
 0.0009934001721916708    4    1   11   11
 0.0009934001721916678    4    1   12   12
 0.0009910918157888249    4    1   13   13
 -3.14025329985093e-05    4    1   14   11
 -5.479538063279607e-05    4    1   14   12
 0.0009980168849973606    4    1   14   14
 0.0009910918157888253    4    1   15   15
 0.0003512199990943079    4    1   16   16
 0.0003512199990943072    4    1   17   17
 -8.326854011130075e-06    4    1   18   16
 -1.452981945868056e-05    4    1   18   17
 0.0003518320945189999    4    1   18   18
 -2.775618003710007e-06    4    1   19   16
 -4.8432731528935e-06    4    1   19   17
 6.120954246929482e-07    4    1   19   18
 0.0003510159672860762    4    1   19   19
 0.0003508119354778454    4    1   20   20
 0.0004967000871764672    4    1   21   21
 0.0004967000871764666    4    1   22   22
 -1.177594990790982e-05    4    1   23   21
 -2.054826779569967e-05    4    1   23   22
 0.0004969886317258883    4    1   23   23
 3.925316662429138e-06    4    1   24   21
 6.849422644736118e-06    4    1   24   22
 2.885445494229463e-07    4    1   24   23
 0.0004946802753110535    4    1   24   24
 -1.665370809765638e-05    4    1   25   21
 -2.905963904892283e-05    4    1   25   22
 2.040318092906162e-06    4    1   25   23
 4.080636158304328e-07    4    1   25   24
 0.0004984313544924539    4    1   25   25
 0.0004967000871764656    4    1   26   26
 0.0004967000871764655    4    1   27   27
 -1.17759499079098e-05    4    1   28   26
 -2.054826779569969e-05    4    1   28   27
 0.0004969886317258885    4    1   28   28
 3.925316662429172e-06    4    1   29   26
 6.849422644736114e-06    4    1   29   27
 2.885445494228544e-07    4    1   29   28
 0.0004946802753110536    4    1   29   29
 1.665370809765639e-05    4    1   30   26
 2.905963904892275e-05    4    1   30   27
 -2.040318092905895e-06    4    1   30   28
 -4.080636158304202e-07    4    1   30   29
 0.0004984313544924529    4    1   30   30
 0.07540390134933631    4    2    4    1
 0.07525188015951512    4    2    4    2
 2.739769031639831e-05    4    2    9    6
 4.780719024856367e-05    4    2    9    7
 -4.027932005869391e-06    4    2    9    8
 0.001733418783717619    4    2   11   11
 0.001733418783717616    4    2   12   12
 0.001729390851711748    4    2   13   13
 -5.479538063279674e-05    4    2   14   11
 -9.561438049712632e-05    4    2   14   12
 0.001741474647729356    4    2   14   14
 0.001729390851711749    4    2   15   15
 0.0006128560883014336    4    2   16   16
 0.0006128560883014332    4    2   17   17
 -1.452981945868063e-05    4    2   18   16
 -2.535359131067588e-05    4    2   18   17
 0.0006139241550647483    4    2   18   18
 -4.8432731528935e-06    4    2   19   16
 -8.451197103558612e-06    4    2   19   17
 1.068066763316052e-06    4    2   19   18
 0.0006125000660469942    4    2   19   19
 0.0006121440437925557    4    2   20   20
 0.0008667093937444409    4    2   21   21
 0.0008667093937444398    4    2   22   22
 -2.054826779569961e-05    4    2   23   21
 -3.585539278832866e-05    4    2   23   22
 0.0008672128852435443    4    2   23   23
 6.849422644736175e-06    4    2   24   21
 1.195179767667242e-05    4    2   24   22
 5.034914991061302e-07    4    2   24   23
 0.0008631849532167552    4    2   24   24
 -2.905963904892281e-05    4    2   25   21
 -5.070718285091835e-05    4    2   25   22
 3.560222562876769e-06    4    2   25   23
 7.120445077753864e-07    4    2   25   24
 0.0008697303427730158    4    2   25   25
 0.0008667093937444385    4    2   26   26
 0.0008667093937444383    4    2   27   27
 -2.054826779569961e-05    4    2   28   26
 -3.585539278832867e-05    4    2   28   27
 0.0008672128852435454    4    2   28   28
 6.849422644736233e-06    4    2   29   26
 1.195179767667241e-05    4    2   29   27
 5.0349149910597e-07    4    2   29   28
 0.0008631849532167557    4    2   29   29
 2.905963904892278e-05    4    2   30   26
 5.070718285091833e-05    4    2   30   27
 -3.560222562876304e-06    4    2   30   28
 -7.120445077753642e-07    4    2   30   29
 0.0008697303427730146    4    2   30   30
 0.06370597341571142    4    3    4    3
 2.308356402845384e-06    4    3    9    6
 4.027932005869416e-06    4    3    9    7
 -4.524908257398851e-07    4    3    9    8
 2.308356402845383e-06    4    3   13   11
 4.027932005869412e-06    4    3   13   12
 -4.524908257398843e-07    4    3   14   13
 2.581769227834814e-05    4    3   16   16
 2.581769227834811e-05    4    3   17   17
 -6.120954246926278e-07    4    3   18   16
 -1.06806676331549e-06    4    3   18   17
 2.584268910110645e-05    4    3   18   18
 -6.120954246926274e-07    4    3   19   16
 -1.068066763315495e-06    4    3   19   17
 9.498792648128731e-08    4    3   19   18
 2.584268910110645e-05    4    3   19   19
 2.576769863283176e-05    4    3   20   20
 3.651173067298652e-05    4    3   21   21
 3.651173067298649e-05    4    3   22   22
 -2.885445494229179e-07    4    3   23   21
 -5.034914991060854e-07    4    3   23   22
 3.633497644272913e-05    4    3   23   23
 -2.885445494229165e-07    4    3   24   21
 -5.034914991060834e-07    4    3   24   22
 7.777186090341536e-08    4    3   24   23
 3.633497644272913e-05    4    3   24   24
 -2.040318092905967e-06    4    3   25   21
 -3.560222562876435e-06    4    3   25   22
 1.499809370913202e-07    4    3   25   23
 1.499809370913071e-07    4    3   25   24
 3.686523913350159e-05    4    3   25   25
 3.651173067298641e-05    4    3   26   26
 3.651173067298642e-05    4    3   27   27
 -2.885445494229172e-07    4    3   28   26
 -5.034914991060861e-07    4    3   28   27
 3.633497644272916e-05    4    3   28   28
 -2.885445494229138e-07    4    3   29   26
 -5.03491499106083e-07    4    3   29   27
 7.777186090340869e-08    4    3   29   28
 3.633497644272914e-05    4    3   29   29
 2.040318092905965e-06    4    3   30   26
 3.560222562876429e-06    4    3   30   27
 -1.499809370913006e-07    4    3   30   28
 -1.49980937091306e-07    4    3   30   29
 3.686523913350153e-05    4    3   30   30
 1.104396432285515    4    4    1    1
 0.07725646222379867    4    4    2    1
 0.6318188052700054    4    4    2    2
 0.9131189522918639    4    4    3    3
 1.040530899123289    4    4    4    4
 0.9131189522918619    4    4    5    5
 0.06280254706042765    4    4    6    6
 0.06280254706042758    4    4    7    7
 -0.0009910918157888301    4    4    8    6
 -0.00172939085171175    4    4    8    7
 0.06289945918445333    4    4    8    8
 0.06275420412112133    4    4    9    9
 0.06275397787570847    4    4   10   10
 0.0629485939827045    4    4   11   11
 0.0629485939827044    4    4   12   12
 0.06289945918445317    4    4   13   13
 -0.0009980168849973805    4    4   14   11
 -0.001741474647729349    4    4   14   12
 0.06304686357920732    4    4   14   14
 0.06289945918445319    4    4   15   15
 0.04445113638934629    4    4   16   16
 0.04445113638934626    4    4   17   17
 -0.0003518320945190019    4    4   18   16
 -0.0006139241550647447    4    4   18   17
 0.04445983727469887    4    4   18   18
 -0.0003510159672860777    4    4   19   16
 -0.0006125000660469972    4    4   19   17
 2.584268910114783e-05    4    4   19   18
 0.04445967729503324    4    4   19   19
 0.04443389459830673    4    4   20   20
 0.06283905888572909    4    4   21   21
 0.06283905888572901    4    4   22   22
 -0.0004969886317258881    4    4   23   21
 -0.0008672128852435494    4    4   23   22
 0.06282696608061683    4    4   23   23
 -0.0004946802753110512    4    4   24   21
 -0.0008631849532167559    4    4   24   22
 3.633497644273276e-05    4    4   24   23
 0.06282662671249592    4    4   24   24
 -0.000702848064516409    4    4   25   21
 -0.001226424225842844    4    4   25   22
 5.178536572758796e-05    4    4   25   23
 5.138541656041597e-05    4    4   25   24
 0.06286358386407422    4    4   25   25
 0.0628390588857289    4    4   26   26
 0.0628390588857289    4    4   27   27
 -0.0004969886317258884    4    4   28   26
 -0.0008672128852435518    4    4   28   27
 0.06282696608061691    4    4   28   28
 -0.0004946802753110479    4    4   29   26
 -0.0008631849532167579    4    4   29   27
 3.633497644272126e-05    4    4   29   28
 0.06282662671249598    4    4   29   29
 0.0007028480645164096    4    4   30   26
 0.001226424225842842    4    4   30   27
 -5.178536572755427e-05    4    4   30   28
 -5.138541656041449e-05    4    4   30   29
 0.06286358386407413    4    4   30   30
 0.1364260178333787    5    1    5    1
 0.07540390134933603    5    1    5    2
 1.570126649925461e-05    5    1   10    6
 2.739769031639825e-05    5    1   10    7
 -2.308356402845361e-06    5    1   10    8
 1.570126649925461e-05    5    1   15   11
 2.739769031639822e-05    5    1   15   12
 -2.308356402845359e-06    5    1   15   14
 5.551236007420051e-06    5    1   20   16
 9.68654630578709e-06    5    1   20   17
 -4.080636164618317e-07    5    1   20   18
 -4.080636164618325e-07    5    1   20   19
 0.0007024400009005792    5    1   21   21
 0.0007024400009005788    5    1   22   22
 -1.665370809765634e-05    5    1   23   21
 -2.905963904892278e-05    5    1   23   22
 0.0007028480645164067    5    1   23   23
 -1.665370809765631e-05    5    1   24   21
 -2.905963904892273e-05    5    1   24   22
 2.040318092905935e-06    5    1   24   23
 0.0007028480645164069    5    1   24   24
 -7.850633324858005e-06    5    1   25   21
 -1.36988452894718e-05    5    1   25   22
 1.731267315988297e-06    5    1   25   23
 1.731267315988045e-06    5    1   25   24
 0.0007016238736689156    5    1   25   25
 -0.0007024400009005768    5    1   26   26
 -0.0007024400009005775    5    1   27   27
 1.665370809765633e-05    5    1   28   26
 2.905963904892281e-05    5    1   28   27
 -0.0007028480645164071    5    1   28   28
 1.665370809765627e-05    5    1   29   26
 2.905963904892276e-05    5    1   29   27
 -2.040318092905809e-06    5    1   29   28
 -0.0007028480645164069    5    1   29   29
 -7.850633324858e-06    5    1   30   26
 -1.369884528947176e-05    5    1   30   27
 1.731267315987919e-06    5    1   30   28
 1.731267315988028e-06    5    1   30   29
 -0.0007016238736689145    5    1   30   30
 0.075403901349336    5    2    5    1
 0.07525188015951481    5    2    5    2
 2.739769031639826e-05    5    2   10    6
 4.780719024856356e-05    5    2   10    7
 -4.027932005869384e-06    5    2   10    8
 2.739769031639828e-05    5    2   15   11
 4.780719024856351e-05    5    2   15   12
 -4.027932005869378e-06    5    2   15   14
 9.686546305787097e-06    5    2   20   16
 1.690239420711734e-05    5    2   20   17
 -7.120445088771358e-07    5    2   20   18
 -7.120445088771371e-07    5    2   20   19
 0.001225712181335068    5    2   21   21
 0.001225712181335066    5    2   22   22
 -2.905963904892275e-05    5    2   23   21
 -5.07071828509183e-05    5    2   23   22
 0.001226424225842839    5    2   23   23
 -2.905963904892269e-05    5    2   24   21
 -5.070718285091823e-05    5    2   24   22
 3.56022256287637e-06    5    2   24   23
 0.001226424225842839    5    2   24   24
 -1.369884528947177e-05    5    2   25   21
 -2.390359535334408e-05    5    2   25   22
 3.020949028576848e-06    5    2   25   23
 3.020949028576411e-06    5    2   25   24
 0.001224288092319513    5    2   25   25
 -0.001225712181335064    5    2   26   26
 -0.001225712181335064    5    2   27   27
 2.905963904892274e-05    5    2   28   26
 5.070718285091833e-05    5    2   28   27
 -0.00122642422584284    5    2   28   28
 2.905963904892263e-05    5    2   29   26
 5.070718285091827e-05    5    2   29   27
 -3.560222562876149e-06    5    2   29   28
 -0.00122642422584284    5    2   29   29
 -1.369884528947177e-05    5    2   30   26
 -2.390359535334404e-05    5    2   30   27
 3.020949028576191e-06    5    2   30   28
 3.020949028576381e-06    5    2   30   29
 -0.001224288092319511    5    2   30   30
 0.06370597341571115    5    3    5    3
 2.308356402845379e-06    5    3   10    6
 4.027932005869407e-06    5    3   10    7
 -4.524908257398841e-07    5    3   10    8
 1.131227064349715e-07    5    3   15   13
 4.080636164618378e-07    5    3   20   16
 7.120445088771473e-07    5    3   20   17
 -2.999618730987829e-08    5    3   20   18
 -4.999364551646422e-08    5    3   20   19
 5.163538479049726e-05    5    3   21   21
 5.163538479049721e-05    5    3   22   22
 -4.080636158306293e-07    5    3   23   21
 -7.120445077757369e-07    5    3   23   22
 5.138541656043918e-05    5    3   23   23
 -2.040318092906217e-06    5    3   24   21
 -3.560222562876869e-06    5    3   24   22
 1.499809370913232e-07    5    3   24   23
 5.17853657275887e-05    5    3   24   24
 -1.731267315988335e-06    5    3   25   21
 -3.020949028576921e-06    5    3   25   22
 1.838243991055833e-07    5    3   25   23
 3.535084605149421e-07    5    3   25   24
 5.173537208346424e-05    5    3   25   25
 -5.163538479049716e-05    5    3   26   26
 -5.163538479049718e-05    5    3   27   27
 4.080636158306291e-07    5    3   28   26
 7.120445077757389e-07    5    3   28   27
 -5.13854165604393e-05    5    3   28   28
 2.040318092906214e-06    5    3   29   26
 3.560222562876873e-06    5    3   29   27
 -1.49980937091314e-07    5    3   29   28
 -5.17853657275888e-05    5    3   29   29
 -1.731267315988336e-06    5    3   30   26
 -3.020949028576919e-06    5    3   30   27
 1.838243991055557e-07    5    3   30   28
 3.535084605149408e-07    5    3   30   29
 -5.173537208346424e-05    5    3   30   30
 0.06370597341571128    5    4    5    4
 1.131227064349718e-07    5    4   10    9
 2.308356402845382e-06    5    4   15   11
 4.027932005869408e-06    5    4   15   12
 -4.524908257398839e-07    5    4   15   14
 4.080636164618385e-07    5    4   20   16
 7.120445088771482e-07    5    4   20   17
 -4.999364551646421e-08    5    4   20   18
 -2.999618730987838e-08    5    4   20   19
 5.163538479051862e-05    5    4   21   21
 5.163538479051856e-05    5    4   22   22
 -2.040318092906389e-06    5    4   23   21
 -3.560222562877173e-06    5    4   23   22
 5.178536572761008e-05    5    4   23   23
 -4.080636158307961e-07    5    4   24   21
 -7.120445077760279e-07    5    4   24   22
 1.499809370913357e-07    5    4   24   23
 5.138541656046055e-05    5    4   24   24
 -1.731267315988576e-06    5    4   25   21
 -3.02094902857734e-06    5    4   25   22
 3.535084605149786e-07    5    4   25   23
 1.838243991055826e-07    5    4   25   24
 5.173537208348563e-05    5    4   25   25
 -5.163538479047591e-05    5    4   26   26
 -5.163538479047591e-05    5    4   27   27
 2.040318092906052e-06    5    4   28   26
 3.560222562876586e-06    5    4   28   27
 -5.178536572756756e-05    5    4   28   28
 4.080636158304567e-07    5    4   29   26
 7.120445077754423e-07    5    4   29   27
 -1.499809370913015e-07    5    4   29   28
 -5.138541656041801e-05    5    4   29   29
 -1.731267315988099e-06    5    4   30   26
 -3.020949028576506e-06    5    4   30   27
 3.535084605149158e-07    5    4   30   28
 1.838243991055463e-07    5    4   30   29
 -5.173537208344297e-05    5    4   30   30
 1.104396432285511    5    5    1    1
 0.07725646222379828    5    5    2    1
 0.6318188052700028    5    5    2    2
 0.9131189522918599    5    5    3    3
 0.9131189522918619    5    5    4    4
 1.04053089912328    5    5    5    5
 0.06280254706042736    5    5    6    6
 0.0628025470604273    5    5    7    7
 -0.0009910918157888262    5    5    8    6
 -0.001729390851711742    5    5    8    7
 0.06289945918445305    5    5    8    8
 0.06275397787570819    5    5    9    9
 0.06275420412112105    5    5   10   10
 0.06280254706042726    5    5   11   11
 0.06280254706042715    5    5   12   12
 0.06275397787570811    5    5   13   13
 -0.0009910918157888403    5    5   14   11
 -0.001729390851711734    5    5   14   12
 0.06289945918445286    5    5   14   14
 0.062754204121121    5    5   15   15
 0.04442531869706774    5    5   16   16
 0.0444253186970677    5    5   17   17
 -0.0003508119354778461    5    5   18   16
 -0.000612144043792549    5    5   18   17
 0.04443389459830652    5    5   18   18
 -0.0003508119354778457    5    5   19   16
 -0.0006121440437925556    5    5   19   17
 2.576769863287301e-05    5    5   19   18
 0.04443389459830654    5    5   19   19
 0.0444081668945901    5    5   20   20
 0.06287557061664793    5    5   21   21
 0.06287557061664789    5    5   22   22
 -0.0004984313544924514    5    5   23   21
 -0.0008697303427730161    5    5   23   22
 0.06286358386407388    5    5   23   23
 -0.0004984313544924491    5    5   24   21
 -0.000869730342773012    5    5   24   22
 3.686523913350506e-05    5    5   24   23
 0.06286358386407388    5    5   24   24
 -0.0007016238736689143    5    5   25   21
 -0.001224288092319511    5    5   25   22
 5.173537208346325e-05    5    5   25   23
 5.173537208344076e-05    5    5   25   24
 0.06289954412179576    5    5   25   25
 0.06287557061664775    5    5   26   26
 0.06287557061664777    5    5   27   27
 -0.0004984313544924516    5    5   28   26
 -0.0008697303427730186    5    5   28   27
 0.06286358386407397    5    5   28   28
 -0.0004984313544924456    5    5   29   26
 -0.0008697303427730145    5    5   29   27
 3.686523913349355e-05    5    5   29   28
 0.06286358386407394    5    5   29   29
 0.0007016238736689145    5    5   30   26
 0.00122428809231951    5    5   30   27
 -5.173537208342953e-05    5    5   30   28
 -5.173537208343929e-05    5    5   30   29
 0.06289954412179567    5    5   30   30
 0.06285122936785323    6    6    1    1
 0.06285122936785326    6    6    2    2
 0.0009934001721916721    6    6    3    1
 0.001733418783717619    6    6    3    2
 0.0629485939827045    6    6    3    3
 0.06280254706042766    6    6    4    4