 &FCI NORB=  24,NELEC=24,MS2=0,
  ORBSYM=1,1,1,1,1,1,1,1,1,1,1,1,1,1,1,1,1,1,1,1,1,1,1,1,
  ISYM=1,
 &END
 0.426526928640965    1    1    1    1
 0.005610089195061708    2    1    1    1
 0.004740741074714521    2    1    2    1
 0.1911534049286105    2    2    1    1
 0.004978615767928489    2    2    2    1
 0.3882287635831934    2    2    2    2
 0.005610458546449933    3    1    1    1
 -0.00246528579291977    3    1    2    1
 -0.003822604984101849    3    1    2    2
 0.004740582775195455    3    1    3    1
 -0.005937548757729914    3    2    1    1
 -0.0005073886660571771    3    2    2    1
 0.0002156891116102289    3    2    2    2
 -0.0005074911223732987    3    2    3    1
 0.0002894182099622609    3    2    3    2
 0.1911574458171516    3    3    1    1
 -0.003823606267945452    3    3    2    1
 0.1068914949320222    3    3    2    2
 0.004979630169433747    3    3    3    1
 0.0002154542511477514    3    3    3    2
 0.3882584065489619    3    3    3    3
 0.00034321438424559    4    1    1    1
 -0.001663908325038777    4    1    2    1
 -0.008897057026267264    4    1    2    2
 0.001305254069488332    4    1    3    1
 2.879667551670401e-05    4    1    3    2
 0.002732114820766509    4    1    3    3
 0.001376324155131846    4    1    4    1
 -0.01154418239270486    4    2    1    1
 -0.00498338115494128    4    2    2    1
 0.01725440700573683    4    2    2    2
 0.0003800119195567078    4    2    3    1
 0.001124585256354747    4    2    3    2
 -0.001603290231993446    4    2    3    3
 -0.00109696651812662    4    2    4    1
 0.02611315882700147    4    2    4    2
 0.003220169323244343    4    3    1    1
 8.037003220237799e-05    4    3    2    1
 0.001950378986258897    4    3    2    2
 0.0003258018336576116    4    3    3    1
 -0.0001204523499655415    4    3    3    2
 -0.0002083637698812105    4    3    3    3
 -0.0001591887840688829    4    3    4    1
 0.0004474021915944671    4    3    4    2
 0.0001164333114947722    4    3    4    3
 0.1239586401058933    4    4    1    1
 -0.002826492539830896    4    4    2    1
 0.2497637738987733    4    4    2    2
 -0.001950990013812978    4    4    3    1
 0.001576474675654039    4    4    3    2
 0.07999443208880569    4    4    3    3
 0.003143215580789078    4    4    4    1
 0.0147097570255724    4    4    4    2
 -0.001266978943023548    4    4    4    3
 0.3867533675005262    4    4    4    4
 0.008505510100320208    5    1    1    1
 -0.003133931222718655    5    1    2    1
 -0.005774090918584745    5    1    2    2
 0.003343992814909162    5    1    3    1
 -0.0001156448985573319    5    1    3    2
 0.01105630466245474    5    1    3    3
 0.001685348550558885    5    1    4    1
 0.0006351545140431947    5    1    4    2
 6.078432417584195e-05    5    1    4    3
 -0.003365139390671953    5    1    4    4
 0.007530073861540732    5    1    5    1
 -0.005964835086586178    5    2    1    1
 -0.0006729325811818449    5    2    2    1
 0.002090372188344454    5    2    2    2
 8.868751191984413e-06    5    2    3    1
 0.0002129919764995133    5    2    3    2
 -0.001368463022236795    5    2    3    3
 8.275526411428573e-06    5    2    4    1
 0.001540302956373342    5    2    4    2
 -3.73694680485245e-05    5    2    4    3
 0.0009923056436275453    5    2    4    4
 -0.0003406415213681923    5    2    5    1
 0.0004366614888171126    5    2    5    2
 0.00388628207930438    5    3    1    1
 2.265170303591389e-06    5    3    2    1
 0.0008416653460072759    5    3    2    2
 0.0003840562733941765    5    3    3    1
 -0.000130725539487112    5    3    3    2
 -0.007143594270348676    5    3    3    3
 4.163539435510244e-05    5    3    4    1
 -0.0001358365454416876    5    3    4    2
 4.839698537918945e-05    5    3    4    3
 0.00034562146863945    5    3    4    4
 0.001303543657310768    5    3    5    1
 -0.0002091902815985209    5    3    5    2
 0.00142052913781558    5    3    5    3
 0.003462225238773438    5    4    1    1
 0.0003102157477528837    5    4    2    1
 0.002339576982923496    5    4    2    2
 -0.0001028837888274422    5    4    3    1
 -7.474880568774183e-05    5    4    3    2
 0.0004239898162525856    5    4    3    3
 -0.0002794389132949676    5    4    4    1
 -0.0003705381283093919    5    4    4    2
 8.043180026168865e-05    5    4    4    3
 -0.002498212721897358    5    4    4    4
 -9.12230343480592e-05    5    4    5    1
 -0.0001757081444262552    5    4    5    2
 6.011649976728083e-05    5    4    5    3
 0.0002526777592832878    5    4    5    4
 0.2241130062605479    5    5    1    1
 -0.001971110914245021    5    5    2    1
 0.1138774638330872    5    5    2    2
 0.00845099656381965    5    5    3    1
 -0.002626731235003813    5    5    3    2
 0.1591720938598147    5    5    3    3
 0.001478929512801189    5    5    4    1
 -0.006289173203320845    5    5    4    2
 0.001330109589591815    5    5    4    3
 0.08828403882031303    5    5    4    4
 0.008503123164131961    5    5    5    1
 0.001921784181235621    5    5    5    2
 -0.0004910226555764098    5    5    5    3
 -0.002464923449256207    5    5    5    4
 0.4265398182654682    5    5    5    5
 0.0003428802201002136    6    1    1    1
 0.001305290739401437    6    1    2    1
 0.002731650543453687    6    1    2    2
 -0.001663804379779924    6    1    3    1
 2.883076379226547e-05    6    1    3    2
 -0.008898490255440339    6    1    3    3
 -0.0006434272430946205    6    1    4    1
 -0.0003158450432874879    6    1    4    2
 -3.354436940005429e-05    6    1    4    3
 0.001308843059582858    6    1    4    4
 -0.001653845389523199    6    1    5    1
 -7.261488758844055e-05    6    1    5    2
 0.0002204495052014239    6    1    5    3
 9.16921605074569e-05    6    1    5    4
 -0.004541697146201912    6    1    5    5
 0.001376356574236679    6    1    6    1
 0.003220387947085531    6    2    1    1
 0.0003257958545259834    6    2    2    1
 -0.0002082739908757813    6    2    2    2
 8.039541233029624e-05    6    2    3    1
 -0.0001204552391693545    6    2    3    2
 0.001950797714412144    6    2    3    3
 -3.354136866237191e-05    6    2    4    1
 -0.0006548464175589974    6    2    4    2
 4.232360697829528e-05    6    2    4    3
 -0.001277599279533642    6    2    4    4
 3.332993292263323e-05    6    2    5    1
 -0.0001173581805616197    6    2    5    2
 -5.124874986773002e-05    6    2    5    3
 4.253126734556323e-05    6    2    5    4
 0.00145326332369189    6    2    5    5
 -0.000159220461810903    6    2    6    1
 0.0001164488533308598    6    2    6    2
 -0.01154324991098219    6    3    1    1
 0.0003800759922601056    6    3    2    1
 -0.001602856971951302    6    3    2    2
 -0.004983411056378111    6    3    3    1
 0.001124617058536376    6    3    3    2
 0.01725286254551985    6    3    3    3
 -0.0003158587142350415    6    3    4    1
 0.0005746556429111232    6    3    4    2
 -0.0006547858687667963    6    3    4    3
 -0.0008238089803471344    6    3    4    4
 -0.001352802723446755    6    3    5    1
 8.772584223738791e-05    6    3    5    2
 -0.001534995955114603    6    3    5    3
 5.943177867084311e-05    6    3    5    4
 -0.01387959368952198    6    3    5    5
 -0.001097296798099068    6    3    6    1
 0.0004475080537846458    6    3    6    2
 0.02611104842072048    6    3    6    3
 -0.001565732017101907    6    4    1    1
 -4.193840699484561e-05    6    4    2    1
 -0.001171278406017743    6    4    2    2
 -4.194474715373119e-05    6    4    3    1
 3.039452198963215e-05    6    4    3    2
 -0.00117133919651554    6    4    3    3
 0.0001094407891983486    6    4    4    1
 -0.0004485215011705676    6    4    4    2
 -5.063601682872729e-05    6    4    4    3
 0.0007512773420370989    6    4    4    4
 -1.109584609637144e-05    6    4    5    1
 1.034389626864845e-05    6    4    5    2
 5.323835855939761e-05    6    4    5    3
 -4.080090920072358e-05    6    4    5    4
 -0.0005199643625653317    6    4    5    5
 0.0001094487698388219    6    4    6    1
 -5.064005798495643e-05    6    4    6    2
 -0.0004485220530637273    6    4    6    3
 5.491955755987593e-05    6    4    6    4
 -0.004541940137577157    6    5    1    1
 0.0001385332419203896    6    5    2    1
 -0.001104161710647588    6    5    2    2
 -0.0005528936050663103    6    5    3    1
 9.744113099183281e-05    6    5    3    2
 -0.002320663275203272    6    5    3    3
 -0.0001202036168495527    6    5    4    1
 4.547955693323024e-05    6    5    4    2
 -4.297185273786405e-05    6    5    4    3
 -0.0004558205864417328    6    5    4    4
 -0.001654206371032312    6    5    5    1
 0.0002112730364323528    6    5    5    2
 -0.0008353484850934157    6    5    5    3
 -3.832279430650607e-05    6    5    5    4
 0.0003424013518666549    6    5    5    5
 0.0002199956226272151    6    5    6    1
 -2.397843014618434e-05    6    5    6    2
 0.002598922096284956    6    5    6    3
 -2.100116426578795e-05    6    5    6    4
 0.001376762817798834    6    5    6    5
 0.1239607409165861    6    6    1    1
 -0.001951398625858272    6    6    2    1
 0.07999461272891911    6    6    2    2
 -0.002826596380908054    6    6    3    1
 0.001576512105416366    6    6    3    2
 0.249765016120713    6    6    3    3
 0.001309025727007865    6    6    4    1
 -0.0008240275879572205    6    6    4    2
 -0.001277525031623123    6    6    4    3
 0.06377160844973412    6    6    4    4
 0.006084954628787853    6    6    5    1
 -0.0004562196931478176    6    6    5    2
 0.001221917466714101    6    6    5    3
 -6.450881679680794e-05    6    6    5    4
 0.1239639704825954    6    6    5    5
 0.003142236190452332    6    6    6    1
 -0.001266671950269909    6    6    6    2
 0.01471066780175461    6    6    6    3
 0.0007510404725795193    6    6    6    4
 0.003143539924226935    6    6    6    5
 0.3867406264901531    6    6    6    6
 0.001921784750954383    7    1    1    1
 -0.0002779437387472604    7    1    2    1
 -0.0002621813607100998    7    1    2    2
 0.000345094716283474    7    1    3    1
 -3.528695398955056e-05    7    1    3    2
 0.001350067452481014    7    1    3    3
 0.0002114310175884472    7    1    4    1
 0.0001425087672160341    7    1    4    2
 2.075634864121171e-05    7    1    4    3
 -0.0004565996322214037    7    1    4    4
 0.0005283068631176821    7    1    5    1
 -3.677132079806402e-05    7    1    5    2
 6.827828286274068e-05    7    1    5    3
 -5.821469933736629e-06    7    1    5    4
 -0.003243161041803175    7    1    5    5
 -0.0001191637786151204    7    1    6    1
 2.028388045887969e-05    7    1    6    2
 -2.006032073157808e-05    7    1    6    3
 -1.437381880960807e-05    7    1    6    4
 -0.0001393690410858734    7    1    6    5
 0.0004268442783055637    7    1    6    6
 0.0004370208556227568    7    1    7    1
 -0.0001426123389769005    7    2    1    1
 0.0001173501345705662    7    2    2    1
 0.0026491119343798    7    2    2    2
 -6.177250686997964e-05    7    2    3    1
 2.933161116227963e-07    7    2    3    2
 -0.0001091854190150058    7    2    3    3
 -0.0001130750573958837    7    2    4    1
 8.399432039280893e-05    7    2    4    2
 2.03788625619929e-05    7    2    4    3
 -0.000342867461512056    7    2    4    4
 -3.68685872204647e-05    7    2    5    1
 6.816778055052325e-05    7    2    5    2
 -9.378452510885714e-07    7    2    5    3
 -9.219339402214037e-07    7    2    5    4
 -0.0005605146102583214    7    2    5    5
 3.288222883567946e-05    7    2    6    1
 7.114845623988721e-06    7    2    6    2
 3.993567186544367e-05    7    2    6    3
 -1.679855527739802e-05    7    2    6    4
 -5.240440812257303e-06    7    2    6    5
 -6.371087129029788e-05    7    2    6    6
 6.481246625310767e-05    7    2    7    1
 0.0001004432991318486    7    2    7    2
 0.001337419594623758    7    3    1    1
 -2.703574870503979e-05    7    3    2    1
 0.0004570109780859314    7    3    2    2
 0.0002235454552637543    7    3    3    1
 -5.392248768623551e-05    7    3    3    2
 0.0006686918038611679    7    3    3    3
 1.936337704755838e-05    7    3    4    1
 -3.668233483335164e-05    7    3    4    2
 3.559090089981404e-05    7    3    4    3
 0.0003042537333057095    7    3    4    4
 4.705237333304083e-05    7    3    5    1
 -3.022007942812758e-05    7    3    5    2
 -4.271089387532302e-05    7    3    5    3
 2.530937665400576e-05    7    3    5    4
 0.0003986073618114385    7    3    5    5
 -5.960182790778203e-05    7    3    6    1
 1.942101458020301e-05    7    3    6    2
 -0.0003574694633490107    7    3    6    3
 -1.158542907655558e-05    7    3    6    4
 -9.544450070234481e-06    7    3    6    5
 -0.000655536984778694    7    3    6    6
 -1.923898651468521e-05    7    3    7    1
 -2.610264164561306e-05    7    3    7    2
 4.785587884145861e-05    7    3    7    3
 0.001453641874727588    7    4    1    1
 9.017786029241882e-05    7    4    2    1
 -0.0001796848898782351    7    4    2    2
 1.00803148076391e-05    7    4    3    1
 -3.476503689603751e-05    7    4    3    2
 0.0005764381963159118    7    4    3    3
 -2.400451552527042e-05    7    4    4    1
 -0.000798423954207109    7    4    4    2
 7.219025072661617e-06    7    4    4    3
 -0.001266980907890878    7    4    4    4
 -3.688972812278935e-05    7    4    5    1
 -6.294070994794814e-05    7    4    5    2
 7.303831445790185e-06    7    4    5    3
 8.043177259787006e-05    7    4    5    4
 0.001330109497305257    7    4    5    5
 1.412621290824012e-06    7    4    6    1
 1.7464240089636e-05    7    4    6    2
 -5.973289723565184e-05    7    4    6    3
 6.494944051407039e-06    7    4    6    4
 -2.193172359819819e-07    7    4    6    5
 0.000350738792249168    7    4    6    6
 -0.0001174223082213663    7    4    7    1
 -5.473605785995156e-05    7    4    7    2
 3.559082327488834e-05    7    4    7    3
 0.0001164331208736992    7    4    7    4
 -0.0003446589181988382    7    5    1    1
 0.0001809100855912316    7    5    2    1
 0.000542351646695252    7    5    2    2
 -0.0002087288444542057    7    5    3    1
 -2.49716268739096e-06    7    5    3    2
 -0.001313017191757604    7    5    3    3
 -0.000115822441523227    7    5    4    1
 -9.036820078166832e-05    7    5    4    2
 7.303687019449191e-06    7    5    4    3
 0.0003456200275325097    7    5    4    4
 -0.001293534455218511    7    5    5    1
 5.490007575172471e-05    7    5    5    2
 -0.0003322314520058386    7    5    5    3
 6.011686927405968e-05    7    5    5    4
 -0.0004910833057083124    7    5    5    5
 8.95668437477311e-05    7    5    6    1
 6.014598413487856e-06    7    5    6    2
 0.0001929283443625379    7    5    6    3
 -7.296001381018751e-06    7    5    6    4
 0.0004703642811113491    7    5    6    5
 -0.0008092720129649971    7    5    6    6
 -0.0004293413805069946    7    5    7    1
 2.269677820056437e-05    7    5    7    2
 -4.271060323379129e-05    7    5    7    3
 4.839643158843952e-05    7    5    7    4
 0.001420527152860962    7    5    7    5
 -0.0002667659128234329    7    6    1    1
 3.683904620032552e-06    7    6    2    1
 -0.0001464453201243625    7    6    2    2
 -3.040768445762126e-06    7    6    3    1
 1.898876353629258e-06    7    6    3    2
 -0.0006530920941971554    7    6    3    3
 -5.737194346991106e-10    7    6    4    1
 4.753103243589172e-06    7    6    4    2
 -3.733598770602715e-06    7    6    4    3
 -0.0001313508399254097    7    6    4    4
 1.136420971347618e-05    7    6    5    1
 1.820902188400138e-05    7    6    5    2
 5.226218221706378e-05    7    6    5    3
 -2.00282711763057e-05    7    6    5    4
 0.0004873711866407877    7    6    5    5
 5.556215195251599e-05    7    6    6    1
 -2.025133184104739e-05    7    6    6    2
 -0.0004156372866456319    7    6    6    3
 1.690496164290888e-05    7    6    6    4
 -5.621677491993159e-05    7    6    6    5
 0.0001008532701565902    7    6    6    6
 -1.47665774003197e-05    7    6    7    1
 2.283164537113892e-05    7    6    7    2
 -2.929053187751019e-05    7    6    7    3
 -2.116964645344897e-05    7    6    7    4
 0.0001241015366867222    7    6    7    5
 4.788997349010071e-05    7    6    7    6
 0.1138898668001647    7    7    1    1
 0.001777386231563092    7    7    2    1
 0.08863491805630661    7    7    2    2
 0.0005812597835288796    7    7    3    1
 -0.001011468172970581    7    7    3    2
 0.07974578870068774    7    7    3    3
 -0.001104413010430738    7    7    4    1
 -0.005599489352099887    7    7    4    2
 0.0005764386826677573    7    7    4    3
 0.0799944347215199    7    7    4    4
 -0.005778946464431872    7    7    5    1
 0.0001583719802533526    7    7    5    2
 -0.001312997545344898    7    7    5    3
 0.0004239869209409038    7    7    5    4
 0.1591721029357515    7    7    5    5
 -0.0003644504998156265    7    7    6    1
 0.0005503810793164141    7    7    6    2
 -0.004174612171957413    7    7    6    3
 -0.000210825076460708    7    7    6    4
 0.002140198510002774    7    7    6    5
 0.06954005391179818    7    7    6    6
 0.002089216096565753    7    7    7    1
 -0.0006670208701338126    7    7    7    2
 0.0006687070601757884    7    7    7    3
 -0.000208358038982036    7    7    7    4
 -0.007143535507200434    7    7    7    5
 -0.001630336752610754    7    7    7    6
 0.3882584160792183    7    7    7    7
 -0.0004905946244690777    8    1    1    1
 0.001372411917159126    8    1    2    1
 0.005726394168811368    8    1    2    2
 -0.0009816636362427098    8    1    3    1
 -5.047490561895127e-05    8    1    3    2
 -0.001912252279989808    8    1    3    3
 -0.0008352989744190442    8    1    4    1
 0.0007706453180633865    8    1    4    2
 6.498820961760419e-05    8    1    4    3
 0.001222073140352546    8    1    4    4
 -0.001293803709146982    8    1    5    1
 1.245007362043744e-05    8    1    5    2
 -2.378573197475741e-05    8    1    5    3
 4.702752433170734e-05    8    1    5    4
 -0.0003457805705173659    8    1    5    5
 0.0004702534447548384    8    1    6    1
 4.950997140769207e-05    8    1    6    2
 0.0002222961874605318    8    1    6    3
 -5.769030257984754e-05    8    1    6    4
 8.96156768352296e-05    8    1    6    5
 -0.000809195077215041    8    1    6    6
 -0.0002093692063975738    8    1    7    1
 0.0001070402284526945    8    1    7    2
 -1.132792786919521e-05    8    1    7    3
 -5.122614611798354e-05    8    1    7    4
 0.0001132265488640001    8    1    7    5
 -3.252517256411944e-07    8    1    7    6
 0.000842288054154142    8    1    7    7
 0.001420877918599463    8    1    8    1
 0.0237453357408955    8    2    1    1
 0.005598084960998342    8    2    2    1
 0.01377207060684318    8    2    2    2
 -0.0008241747434514623    8    2    3    1
 -0.001136415961950078    8    2    3    2
 0.00643696525933282    8    2    3    3
 -0.001641744942841481    8    2    4    1
 -0.01204575709795078    8    2    4    2
 0.0003477770525400077    8    2    4    3
 -0.02425048683345534    8    2    4    4
 -0.001213144754365397    8    2    5    1
 -0.001223461433942074    8    2    5    2
 0.0002192672989098967    8    2    5    3
 0.0007759030235603727    8    2    5    4
 0.01123857454591389    8    2    5    5
 0.000610456405091825    8    2    6    1
 0.0006890197315991928    8    2    6    2
 -0.000659855865003801    8    2    6    3
 -0.0001545888003159425    8    2    6    4
 -0.0001402356133850372    8    2    6    5
 0.003883821450030784    8    2    6    6
 -0.0002238900570470587    8    2    7    1
 0.0003282702414445875    8    2    7    2
 6.428801566061434e-05    8    2    7    3
 0.0003477776878162369    8    2    7    4
 0.0002192664195937127    8    2    7    5
 -5.4735327925491e-07    8    2    7    6
 0.006436972977502672    8    2    7    7
 0.0004939905177305965    8    2    8    1
 0.02465703791911675    8    2    8    2
 -0.001972073786362179    8    3    1    1
 -1.104844009813827e-05    8    3    2    1
 -0.000848636843198526    8    3    2    2
 -0.0002230935865946034    8    3    3    1
 7.230040108828866e-05    8    3    3    2
 -0.0006670131298074643    8    3    3    3
 9.871772375149211e-06    8    3    4    1
 -0.0003323116645928149    8    3    4    2
 -5.473607388013834e-05    8    3    4    3
 -0.0003428702594988074    8    3    4    4
 -6.313427747409835e-05    8    3    5    1
 6.982053230826323e-06    8    3    5    2
 2.269673289778509e-05    8    3    5    3
 -9.219670834566121e-07    8    3    5    4
 -0.0005605122234285942    8    3    5    5
 5.58920909816767e-05    8    3    6    1
 -3.534929756631462e-05    8    3    6    2
 0.0003189114579731771    8    3    6    3
 2.8712032752778e-05    8    3    6    4
 2.095476759817676e-05    8    3    6    5
 0.0006460560790459579    8    3    6    6
 -2.863589632857718e-05    8    3    7    1
 -2.330202529784262e-05    8    3    7    2
 -2.610260054651382e-05    8    3    7    3
 2.037884588366146e-05    8    3    7    4
 -9.378813377785634e-07    8    3    7    5
 6.801079331569434e-06    8    3    7    6
 -0.000109185894003041    8    3    7    7
 -0.0002163736580702384    8    3    8    1
 0.0003282712330646462    8    3    8    2
 0.0001004431775325647    8    3    8    3
 -0.01387893536328946    8    4    1    1
 -0.0009813428114830579    8    4    2    1
 -0.02379482523924659    8    4    2    2
 0.0003657935578272083    8    4    3    1
 0.0001567464616202671    8    4    3    2
 -0.005599488523673426    8    4    3    3
 0.002598742253952094    8    4    4    1
 -0.01336724357594792    8    4    4    2
 -0.0007984244177633108    8    4    4    3
 0.01470974331358809    8    4    4    4
 0.0005095725621412301    8    4    5    1
 -0.0001194508966317321    8    4    5    2
 -9.036828469031054e-05    8    4    5    3
 -0.0003705360596437062    8    4    5    4
 -0.006289166762299949    8    4    5    5
 -0.0002654721306566697    8    4    6    1
 -0.0001255094806137739    8    4    6    2
 0.0001650037124469918    8    4    6    3
 0.0006078458684894964    8    4    6    4
 0.0001033088481366528    8    4    6    5
 -0.003518255479777217    8    4    6    6
 8.779610135499536e-05    8    4    7    1
 -0.0003323115180464281    8    4    7    2
 -3.668207434518132e-05    8    4    7    3
 0.0004474031851052615    8    4    7    4
 -0.0001358354343462034    8    4    7    5
 -9.326059885068758e-07    8    4    7    6
 -0.00160328193145226    8    4    7    7
 -0.001535002999589604    8    4    8    1
 -0.01204572328437281    8    4    8    2
 8.399585651168876e-05    8    4    8    3
 0.02611317701873466    8    4    8    4
 -0.00324354848373938    8    5    1    1
 -0.0003975607458073825    8    5    2    1
 -0.001882732262413389    8    5    2    2
 0.0002111741366756021    8    5    3    1
 7.596489841986428e-05    8    5    3    2
 0.0001583725106882711    8    5    3    3
 0.0002431657616745066    8    5    4    1
 -0.0001194497083013922    8    5    4    2
 -6.294074184204007e-05    8    5    4    3
 0.0009923043840777759    8    5    4    4
 0.0005276346227960678    8    5    5    1
 0.0001438619980116018    8    5    5    2
 5.49002868242643e-05    8    5    5    3
 -0.0001757081452443663    8    5    5    4
 0.001921791298376809    8    5    5    5
 -0.0001392674025815046    8    5    6    1
 -4.698854530425531e-05    8    5    6    2
 -0.0001107158421281421    8    5    6    3
 3.988883931298741e-05    8    5    6    4
 -0.0001190307468407937    8    5    6    5
 0.0004263534675756845    8    5    6    6
 8.360604978224363e-05    8    5    7    1
 6.98212598354491e-06    8    5    7    2
 -3.02202289785638e-05    8    5    7    3
 -3.736947169130587e-05    8    5    7    4
 -0.0002091911788767315    8    5    7    5
 2.285376998713439e-05    8    5    7    6
 -0.001368460434258987    8    5    7    7
 -0.0004293461226441623    8    5    8    1
 -0.001223460423927974    8    5    8    2
 6.816775095043486e-05    8    5    8    3
 0.001540304172897433    8    5    8    4
 0.000436661578790158    8    5    8    5
 0.0004870001416595479    8    6    1    1
 -1.165896238420192e-05    8    6    2    1
 0.0003968600360803381    8    6    2    2
 2.00034682078739e-05    8    6    3    1
 -7.583202936182166e-06    8    6    3    2
 0.0007423178645761851    8    6    3    3
 1.154876615418332e-06    8    6    4    1
 0.0002456517303602449    8    6    4    2
 1.111549682033863e-05    8    6    4    3
 0.0004980769139128415    8    6    4    4
 1.13536221457735e-05    8    6    5    1
 1.01894296728199e-05    8    6    5    2
 -4.551462930306099e-05    8    6    5    3
 -9.378643711372397e-06    8    6    5    4
 -0.0002665106783120859    8    6    5    5
 -5.619769414038697e-05    8    6    6    1
 2.448428325365426e-05    8    6    6    2
 0.0004132507508758449    8    6    6    3
 -2.369873968371668e-05    8    6    6    4
 5.555212503754253e-05    8    6    6    5
 0.0001009271599755135    8    6    6    6
 2.283663934349282e-05    8    6    7    1
 1.691438492722273e-05    8    6    7    2
 5.548525462015728e-06    8    6    7    3
 -1.951570933191109e-05    8    6    7    4
 -3.034803379986974e-07    8    6    7    5
 -1.382254050931248e-05    8    6    7    6
 -0.000178895177017552    8    6    7    7
 0.0001241166067880137    8    6    8    1
 -0.0004391746451237748    8    6    8    2
 -5.415745990353958e-05    8    6    8    3
 0.0001630889502203898    8    6    8    4
 -1.48145846541151e-05    8    6    8    5
 4.786162753898306e-05    8    6    8    6
 -0.002627248663897974    8    7    1    1
 -0.0001600182296243804    8    7    2    1
 -0.0001656363907777808    8    7    2    2
 1.148474964383639e-05    8    7    3    1
 5.546293249145705e-05    8    7    3    2
 -0.001011467860106398    8    7    3    3
 9.74403380912349e-05    8    7    4    1
 0.0001567472037044391    8    7    4    2
 -3.476502910150538e-05    8    7    4    3
 0.001576474199824226    8    7    4    4
 0.0001192544664124188    8    7    5    1
 7.596493543018951e-05    8    7    5    2
 -2.497589238994444e-06    8    7    5    3
 -7.47487244288798e-05    8    7    5    4
 -0.002626730959689316    8    7    5    5
 -1.427545141029123e-05    8    7    6    1
 -3.100304129842755e-05    8    7    6    2
 9.871169357790125e-05    8    7    6    3
 1.664260787476665e-05    8    7    6    4
 -1.424970758887714e-05    8    7    6    5
 -0.0006503179198367391    8    7    6    6
 0.0002131173689702047    8    7    7    1
 7.230043910903808e-05    8    7    7    2
 -5.392240281552745e-05    8    7    7    3
 -0.0001204521791120981    8    7    7    4
 -0.0001307249165371748    8    7    7    5
 2.748203716631808e-05    8    7    7    6
 0.0002154543017079811    8    7    7    7
 -0.0001307569455893428    8    7    8    1
 -0.001136414370175421    8    7    8    2
 2.933596797771802e-07    8    7    8    3
 0.001124583675927898    8    7    8    4
 0.000212991826859374    8    7    8    5
 2.745928202923023e-05    8    7    8    6
 0.0002894178301575001    8    7    8    7
 0.1591728482372459    8    8    1    1
 0.00555409338780197    8    8    2    1
 0.2465388833798953    8    8    2    2
 -0.003142316370476985    8    8    3    1
 -0.0001656360649639919    8    8    3    2
 0.08863491495555334    8    8    3    3
 -0.002319883830344857    8    8    4    1
 -0.02379479807439224    8    8    4    2
 -0.0001796810375920962    8    8    4    3
 0.2497638069904538    8    8    4    4
 -0.005778219674537108    8    8    5    1
 -0.00188272742139574    8    8    5    2
 0.0005423568056704448    8    8    5    3
 0.002339579033196418    8    8    5    4
 0.1138774594096993    8    8    5    5
 0.002139917539739345    8    8    6    1
 -0.0003285170041112062    8    8    6    2
 -0.002291794360801321    8    8    6    3
 0.0005527326245293506    8    8    6    4
 -0.0003648725796343577    8    8    6    5
 0.06953972570809812    8    8    6    6
 -0.001369163235049768    8    8    7    1
 -0.0008486322906535921    8    8    7    2
 0.0004570121395351492    8    8    7    3
 0.001950374978147482    8    8    7    4
 0.0008416646435673875    8    8    7    5
 -0.0001791801490959861    8    8    7    6
 0.1068914917857509    8    8    7    7
 -0.00714394627601863    8    8    8    1
 0.01377212492611088    8    8    8    2
 0.002649107237707115    8    8    8    3
 0.01725444209437589    8    8    8    4
 0.00209036304933962    8    8    8    5
 -0.001629858001581209    8    8    8    6
 0.0002156881180238442    8    8    8    7
 0.3882287269511664    8    8    8    8
 0.001921231760294671    9    1    1    1
 0.000344644069630388    9    1    2    1
 0.001348741430000089    9    1    2    2
 -0.0002774878216929352    9    1    3    1
 -3.527074414803505e-05    9    1    3    2
 -0.0002613483617905079    9    1    3    3
 -0.0001189529323032608    9    1    4    1
 -1.999504519881079e-05    9    1    4    2
 2.02726240797814e-05    9    1    4    3
 0.0004262652440927777    9    1    4    4
 -0.0003403323243461644    9    1    5    1
 -9.402844850145993e-05    9    1    5    2
 3.421781067503311e-05    9    1    5    3
 7.006236165246489e-05    9    1    5    4
 -0.005963261915704397    9    1    5    5
 0.0002111710655296339    9    1    6    1
 2.075291278871955e-05    9    1    6    2
 0.000142373718546656    9    1    6    3
 -1.436926248806006e-05    9    1    6    4
 -7.263308547325931e-05    9    1    6    5
 -0.0004559900927219238    9    1    6    6
 0.0001438421953982822    9    1    7    1
 5.556992886410353e-05    9    1    7    2
 -1.022858311397583e-05    9    1    7    3
 -4.696939197016912e-05    9    1    7    4
 1.251049290484915e-05    9    1    7    5
 1.020330093461477e-05    9    1    7    6
 -0.001884060801680925    9    1    7    7
 5.488951695990149e-05    9    1    8    1
 0.0001477190228366213    9    1    8    2