[Molden Format]
made by pyscf v[2.0.1]
[Atoms] (AU)
He   1   2     1.58445976640282    -1.58445976640282     1.58445976640282
He   2   2     1.58445976640282    -1.58445976640282    -1.58445976640282
He   3   2     1.58445976640282     1.58445976640282    -1.58445976640282
He   4   2     1.58445976640282     1.58445976640282     1.58445976640282
He   5   2    -1.58445976640282     1.58445976640282     1.58445976640282
He   6   2    -1.58445976640282     1.58445976640282    -1.58445976640282
He   7   2    -1.58445976640282    -1.58445976640282    -1.58445976640282
He   8   2    -1.58445976640282    -1.58445976640282     1.58445976640282
[GTO]
1 0
 s    3 1.00
                 38.36   0.040176075383249
                  5.77    0.26136807476949
                  1.24    0.79307123949544
 s    1 1.00
                0.2976                   1
 p    1 1.00
                 1.275                   1

2 0
 s    3 1.00
                 38.36   0.040176075383249
                  5.77    0.26136807476949
                  1.24    0.79307123949544
 s    1 1.00
                0.2976                   1
 p    1 1.00
                 1.275                   1

3 0
 s    3 1.00
                 38.36   0.040176075383249
                  5.77    0.26136807476949
                  1.24    0.79307123949544
 s    1 1.00
                0.2976                   1
 p    1 1.00
                 1.275                   1

4 0
 s    3 1.00
                 38.36   0.040176075383249
                  5.77    0.26136807476949
                  1.24    0.79307123949544
 s    1 1.00
                0.2976                   1
 p    1 1.00
                 1.275                   1

5 0
 s    3 1.00
                 38.36   0.040176075383249
                  5.77    0.26136807476949
                  1.24    0.79307123949544
 s    1 1.00
                0.2976                   1
 p    1 1.00
                 1.275                   1

6 0
 s    3 1.00
                 38.36   0.040176075383249
                  5.77    0.26136807476949
                  1.24    0.79307123949544
 s    1 1.00
                0.2976                   1
 p    1 1.00
                 1.275                   1

7 0
 s    3 1.00
                 38.36   0.040176075383249
                  5.77    0.26136807476949
                  1.24    0.79307123949544
 s    1 1.00
                0.2976                   1
 p    1 1.00
                 1.275                   1

8 0
 s    3 1.00
                 38.36   0.040176075383249
                  5.77    0.26136807476949
                  1.24    0.79307123949544
 s    1 1.00
                0.2976                   1
 p    1 1.00
                 1.275                   1

[5d]
[7f]
[9g]

[MO]
 Sym= A
 Ene=               0
 Spin= Alpha
 Occup=    1.00000
   1       1.2390352976921
   2     -0.48633332305776
   3    0.0046614637997631
   4    -0.0046614637997629
   5     0.004661463799763
   6    -0.012385061039374
   7      0.05541079540323
   8    -0.00020256294012311
   9    0.00020256294012302
  10     0.028247907224591
  11    0.00043414819339248
  12    -0.0061888418226005
  13    1.5078239513002e-05
  14    0.0014274969374268
  15    -0.0014274969374268
  16    -0.012385061039374
  17      0.05541079540323
  18    -0.00020256294012318
  19    -0.028247907224591
  20    -0.00020256294012317
  21    0.00043414819339272
  22    -0.0061888418226003
  23    -0.0014274969374268
  24    0.0014274969374268
  25    1.507823951298e-05
  26    -8.2065525146494e-05
  27    0.00087229214420367
  28    4.5081830496045e-05
  29    -4.5081830496061e-05
  30    4.508183049607e-05
  31    0.00043414819339265
  32    -0.0061888418226003
  33    -0.0014274969374268
  34    -1.5078239512962e-05
  35    -0.0014274969374268
  36    -0.012385061039374
  37      0.05541079540323
  38     0.028247907224592
  39    0.0002025629401232
  40    -0.0002025629401232
 Sym= A
 Ene=               1
 Spin= Alpha
 Occup=    1.00000
   1     -0.48633332305776
   2       1.3542859075056
   3    -0.013528562824426
   4     0.013528562824425
   5    -0.013528562824425
   6      0.05541079540323
   7     -0.19215992288943
   8    0.0014999118669726
   9    -0.0014999118669725
  10     -0.06321063744875
  11    -0.0061888418226005
  12      0.03130943450301
  13    -0.00018668196086518
  14    -0.0070127053022742
  15    0.0070127053022742
  16      0.05541079540323
  17     -0.19215992288943
  18    0.0014999118669726
  19      0.06321063744875
  20    0.0014999118669726
  21    -0.0061888418226004
  22      0.03130943450301
  23    0.0070127053022742
  24    -0.0070127053022742
  25    -0.00018668196086519
  26    0.00087229214420342
  27    -0.006087745240559
  28    -0.00075807669813962
  29    0.00075807669813962
  30    -0.0007580766981396
  31    -0.0061888418226004
  32      0.03130943450301
  33    0.0070127053022742
  34    0.00018668196086517
  35    0.0070127053022742
  36      0.05541079540323
  37     -0.19215992288943
  38     -0.06321063744875
  39    -0.0014999118669726
  40    0.0014999118669726
 Sym= A
 Ene=               2
 Spin= Alpha
 Occup=    1.00000
   1    0.0046614637997631
   2    -0.013528562824426
   3       1.0041674266607
   4    -8.7554545309134e-05
   5    8.7554545305694e-05
   6    -0.00020256294012338
   7    0.0014999118669729
   8    -0.001004231655034
   9    4.3546424317655e-06
  10    0.00059439595317332
  11    1.5078239512972e-05
  12    -0.00018668196086548
  13    5.2136662767725e-06
  14    2.3574316523663e-05
  15    -2.3574316523484e-05
  16    -0.00020256294012294
  17    0.0014999118669728
  18    -0.001004231655034
  19    -0.00059439595317065
  20    -4.3546424304769e-06
  21    0.0014274969374268
  22    -0.0070127053022742
  23    -5.0742579848945e-05
  24    0.0039590455027976
  25    2.3574316526288e-05
  26    -4.5081830495992e-05
  27    0.00075807669813968
  28    2.2387947030072e-06
  29    -0.00017269461102724
  30    0.00017269461102875
  31    0.0014274969374272
  32    -0.0070127053022742
  33    -5.074257984954e-05
  34    -2.3574316525863e-05
  35    -0.0039590455027988
  36    -0.028247907224592
  37      0.06321063744875
  38     0.010805369355228
  39    0.0005943959531728
  40    -0.00059439595317155
 Sym= A
 Ene=               3
 Spin= Alpha
 Occup=    1.00000
   1    -0.0046614637997629
   2     0.013528562824425
   3    -8.7554545309134e-05
   4       1.0041674266607
   5    -8.7554545306639e-05
   6    0.00020256294012321
   7    -0.0014999118669725
   8    4.3546424307019e-06
   9    -0.0010042316550323
  10    -0.00059439595317314
  11    -0.0014274969374267
  12    0.0070127053022742
  13    -2.3574316526483e-05
  14    -5.0742579848277e-05
  15     0.003959045502799
  16     0.028247907224592
  17     -0.06321063744875
  18    0.00059439595317191
  19     0.010805369355228
  20    0.00059439595317427
  21    -0.0014274969374271
  22    0.0070127053022742
  23    0.0039590455027965
  24    -5.0742579849743e-05
  25    -2.357431652527e-05
  26    4.5081830496225e-05
  27    -0.00075807669813981
  28    -0.00017269461102986
  29    2.2387947016559e-06
  30    -0.00017269461102781
  31    -1.5078239512835e-05
  32    0.00018668196086529
  33    2.3574316524001e-05
  34    5.2136662770099e-06
  35    2.3574316524801e-05
  36    0.00020256294012266
  37    -0.0014999118669727
  38    -0.00059439595317049
  39    -0.0010042316550343
  40    4.3546424308654e-06
 Sym= A
 Ene=               4
 Spin= Alpha
 Occup=    1.00000
   1     0.004661463799763
   2    -0.013528562824425
   3    8.7554545305696e-05
   4    -8.7554545306675e-05
   5       1.0041674266607
   6    -0.028247907224592
   7      0.06321063744875
   8    -0.00059439595317232
   9    0.00059439595317312
  10     0.010805369355225
  11    0.0014274969374273
  12    -0.0070127053022742
  13    2.357431652568e-05
  14    0.0039590455027992
  15    -5.0742579848688e-05
  16    -0.00020256294012293
  17    0.0014999118669728
  18    -4.3546424312188e-06
  19    -0.00059439595317293
  20    -0.0010042316550325
  21    1.507823951284e-05
  22    -0.00018668196086507
  23    -2.3574316525511e-05
  24    2.3574316523807e-05
  25    5.2136662771548e-06
  26    -4.5081830496053e-05
  27    0.00075807669813957
  28    0.00017269461102634
  29    -0.00017269461103007
  30    2.2387947024965e-06
  31    0.0014274969374268
  32    -0.0070127053022742
  33    -0.0039590455027976
  34    -2.3574316525884e-05
  35    -5.0742579847501e-05
  36    -0.0002025629401234
  37    0.0014999118669724
  38    0.00059439595317335
  39    4.3546424301233e-06
  40    -0.001004231655035
 Sym= A
 Ene=               5
 Spin= Alpha
 Occup=    1.00000
   1    -0.012385061039374
   2      0.05541079540323
   3    -0.00020256294012338
   4    0.00020256294012322
   5    -0.028247907224592
   6       1.2390352976921
   7     -0.48633332305776
   8    0.0046614637997632
   9    -0.0046614637997629
  10    -0.0046614637997629
  11    -0.012385061039374
  12      0.05541079540323
  13    -0.00020256294012256
  14    -0.028247907224592
  15    0.00020256294012356
  16    0.00043414819339283
  17    -0.0061888418226012
  18    1.5078239512807e-05
  19    0.0014274969374268
  20    0.0014274969374271
  21    -8.206552514643e-05
  22    0.00087229214420353
  23    4.508183049679e-05
  24    -4.5081830496705e-05
  25    -4.5081830496645e-05
  26    0.00043414819339223
  27    -0.0061888418225998
  28    -0.0014274969374278
  29    0.0014274969374267
  30    -1.5078239513318e-05
  31    -0.012385061039374
  32      0.05541079540323
  33     0.028247907224593
  34    0.00020256294012282
  35    0.00020256294012355
  36    0.00043414819339255
  37    -0.0061888418226002
  38    -0.0014274969374264
  39    -1.5078239513573e-05
  40    0.0014274969374269
 Sym= A
 Ene=               6
 Spin= Alpha
 Occup=    1.00000
   1      0.05541079540323
   2     -0.19215992288943
   3    0.0014999118669729
   4    -0.0014999118669725
   5      0.06321063744875
   6     -0.48633332305776
   7       1.3542859075056
   8    -0.013528562824425
   9     0.013528562824426
  10     0.013528562824425
  11      0.05541079540323
  12     -0.19215992288943
  13    0.0014999118669726
  14      0.06321063744875
  15    -0.0014999118669727
  16    -0.0061888418226009
  17     0.031309434503011
  18    -0.0001866819608654
  19    -0.0070127053022742
  20    -0.0070127053022743
  21    0.00087229214420395
  22    -0.0060877452405592
  23    -0.00075807669813954
  24    0.00075807669813962
  25    0.00075807669813969
  26    -0.0061888418226002
  27      0.03130943450301
  28    0.0070127053022742
  29    -0.0070127053022742
  30    0.00018668196086524
  31      0.05541079540323
  32     -0.19215992288943
  33     -0.06321063744875
  34    -0.0014999118669725
  35    -0.0014999118669725
  36    -0.0061888418226001
  37      0.03130943450301
  38    0.0070127053022742
  39    0.00018668196086525
  40    -0.0070127053022742
 Sym= A
 Ene=               7
 Spin= Alpha
 Occup=    1.00000
   1    -0.00020256294012312
   2    0.0014999118669726
   3    -0.001004231655034
   4    4.3546424306785e-06
   5    -0.00059439595317233
   6    0.0046614637997632
   7    -0.013528562824425
   8       1.0041674266607
   9    -8.7554545303139e-05
  10    -8.7554545305222e-05
  11    -0.00020256294012279
  12    0.0014999118669723
  13    -0.0010042316550316
  14    -0.00059439595317276
  15    4.3546424318092e-06
  16    1.5078239512835e-05
  17    -0.00018668196086546
  18    5.2136662747669e-06
  19    2.3574316523811e-05
  20    2.3574316524092e-05
  21    -4.5081830496935e-05
  22    0.00075807669813967
  23    2.2387947021908e-06
  24    -0.00017269461102685
  25    -0.00017269461102723
  26    0.0014274969374271
  27    -0.0070127053022743
  28    -5.0742579852071e-05
  29    0.0039590455027981
  30    -2.3574316522854e-05
  31    -0.028247907224592
  32      0.06321063744875
  33     0.010805369355225
  34    0.00059439595317426
  35    0.00059439595317382
  36    0.0014274969374271
  37    -0.0070127053022742
  38    -5.0742579849179e-05
  39    -2.3574316524394e-05
  40    0.0039590455027984
 Sym= A
 Ene=               8
 Spin= Alpha
 Occup=    0.00000
   1    0.00020256294012302
   2    -0.0014999118669725
   3    4.3546424317484e-06
   4    -0.0010042316550323
   5    0.00059439595317312
   6    -0.0046614637997629
   7     0.013528562824426
   8    -8.7554545303113e-05
   9       1.0041674266607
  10    8.7554545306511e-05
  11     0.028247907224592
  12     -0.06321063744875
  13    0.00059439595317155
  14     0.010805369355227
  15    -0.00059439595317242
  16    -0.0014274969374272
  17    0.0070127053022743
  18    -2.3574316522277e-05
  19    -5.0742579847977e-05
  20    -0.0039590455027961
  21    4.5081830496666e-05
  22    -0.00075807669813953
  23    -0.00017269461103046
  24    2.2387947005418e-06
  25    0.00017269461102869
  26    -0.0014274969374271
  27    0.0070127053022739
  28    0.0039590455027992
  29    -5.0742579848667e-05
  30    2.357431652531e-05
  31    0.00020256294012379
  32    -0.0014999118669725
  33    -0.00059439595317288
  34    -0.0010042316550329
  35    -4.3546424298134e-06
  36    -1.5078239513133e-05
  37    0.00018668196086509
  38    2.3574316523874e-05
  39    5.2136662766228e-06
  40    -2.3574316522911e-05
 Sym= A
 Ene=               9
 Spin= Alpha
 Occup=    0.00000
   1     0.028247907224591
   2     -0.06321063744875
   3    0.00059439595317331
   4    -0.00059439595317313
   5     0.010805369355225
   6    -0.0046614637997629
   7     0.013528562824425
   8    -8.7554545305226e-05
   9    8.7554545306533e-05
  10       1.0041674266607
  11    0.00020256294012317
  12    -0.001499911866973
  13    4.3546424277076e-06
  14    0.00059439595317303
  15    -0.0010042316550331
  16    -0.0014274969374266
  17    0.0070127053022742
  18    -2.3574316525586e-05
  19    -0.0039590455027993
  20    -5.0742579848632e-05
  21    4.5081830496355e-05
  22    -0.00075807669813956
  23    -0.00017269461103025
  24    0.00017269461102883
  25    2.2387947030683e-06
  26    -1.5078239512913e-05
  27    0.00018668196086515
  28    2.3574316525912e-05
  29    -2.3574316526142e-05
  30    5.2136662771404e-06
  31    0.00020256294012319
  32    -0.0014999118669726
  33    -0.00059439595317297
  34    -4.3546424320745e-06
  35    -0.0010042316550356
  36    -0.0014274969374266
  37    0.0070127053022741
  38    0.0039590455027982
  39    2.3574316523543e-05
  40    -5.074257984741e-05
 Sym= A
 Ene=              10
 Spin= Alpha
 Occup=    0.00000
   1    0.00043414819339248
   2    -0.0061888418226005
   3    1.5078239512971e-05
   4    -0.0014274969374267
   5    0.0014274969374273
   6    -0.012385061039374
   7      0.05541079540323
   8    -0.00020256294012279
   9     0.028247907224592
  10    0.00020256294012316
  11       1.2390352976921
  12     -0.48633332305776
  13    0.0046614637997631
  14    0.0046614637997632
  15    -0.0046614637997627
  16    -0.012385061039374
  17      0.05541079540323
  18    -0.00020256294012387
  19    -0.00020256294012297
  20    -0.028247907224593
  21    0.00043414819339245
  22    -0.0061888418226003
  23    -0.0014274969374272
  24    1.5078239513869e-05
  25    0.0014274969374272
  26    -0.012385061039374
  27      0.05541079540323
  28     0.028247907224592
  29    -0.00020256294012343
  30    0.00020256294012234
  31    0.00043414819339263
  32    -0.0061888418226004
  33    -0.001427496937427
  34    -0.001427496937427
  35    -1.5078239513242e-05
  36    -8.2065525146371e-05
  37    0.00087229214420362
  38    4.5081830496675e-05
  39    4.5081830496925e-05
  40    -4.5081830496944e-05
 Sym= A
 Ene=              11
 Spin= Alpha
 Occup=    0.00000
   1    -0.0061888418226005
   2      0.03130943450301
   3    -0.00018668196086548
   4    0.0070127053022741
   5    -0.0070127053022742
   6      0.05541079540323
   7     -0.19215992288943
   8    0.0014999118669723
   9     -0.06321063744875
  10    -0.001499911866973
  11     -0.48633332305776
  12       1.3542859075056
  13    -0.013528562824425
  14    -0.013528562824426
  15     0.013528562824425
  16      0.05541079540323
  17     -0.19215992288943
  18    0.0014999118669727
  19    0.0014999118669728
  20      0.06321063744875
  21    -0.0061888418226003
  22     0.031309434503011
  23    0.0070127053022743
  24    -0.00018668196086543
  25    -0.0070127053022744
  26      0.05541079540323
  27     -0.19215992288943
  28    -0.063210637448751
  29    0.0014999118669726
  30    -0.0014999118669724
  31    -0.0061888418226006
  32     0.031309434503011
  33    0.0070127053022742
  34    0.0070127053022743
  35    0.00018668196086535
  36    0.00087229214420355
  37    -0.0060877452405588
  38    -0.00075807669813969
  39    -0.00075807669813973
  40    0.00075807669813952
 Sym= A
 Ene=              12
 Spin= Alpha
 Occup=    0.00000
   1      1.5078239513e-05
   2    -0.00018668196086518
   3    5.2136662767349e-06
   4    -2.3574316526511e-05
   5    2.3574316525698e-05
   6    -0.00020256294012256
   7    0.0014999118669726
   8    -0.0010042316550316
   9    0.00059439595317156
  10    4.3546424276782e-06
  11    0.0046614637997631
  12    -0.013528562824425
  13       1.0041674266607
  14    8.7554545306258e-05
  15    -8.7554545305116e-05
  16    -0.0002025629401229
  17    0.0014999118669725
  18    -0.001004231655033
  19    -4.3546424312467e-06
  20    -0.00059439595317359
  21    0.0014274969374272
  22    -0.0070127053022744
  23    -5.0742579848901e-05
  24    2.3574316523652e-05
  25    0.0039590455027986
  26    -0.028247907224592
  27      0.06321063744875
  28     0.010805369355225
  29    -0.0005943959531762
  30    0.00059439595317381
  31    0.0014274969374268
  32    -0.0070127053022744
  33    -5.0742579851624e-05
  34    -0.0039590455027972
  35    -2.3574316524921e-05
  36    -4.5081830496496e-05
  37    0.00075807669813964
  38    2.2387947037365e-06
  39    0.00017269461102754
  40    -0.00017269461102903
 Sym= A
 Ene=              13
 Spin= Alpha
 Occup=    0.00000
   1    0.0014274969374268
   2    -0.0070127053022742
   3    2.3574316523667e-05
   4    -5.0742579848271e-05
   5    0.0039590455027992
   6    -0.028247907224592
   7      0.06321063744875
   8    -0.00059439595317276
   9     0.010805369355227
  10    0.00059439595317305
  11    0.0046614637997632
  12    -0.013528562824426
  13    8.755454530627e-05
  14       1.0041674266607
  15    -8.7554545303211e-05
  16    -0.00020256294012388
  17    0.0014999118669727
  18    -4.3546424323222e-06
  19    -0.0010042316550333
  20    -0.00059439595317235
  21    1.5078239513167e-05
  22    -0.00018668196086517
  23    -2.3574316522702e-05
  24    5.2136662766391e-06
  25    2.3574316525043e-05
  26    -0.00020256294012298
  27    0.0014999118669726
  28    0.00059439595317134
  29    -0.0010042316550333
  30    4.3546424295937e-06
  31    0.0014274969374272
  32    -0.0070127053022742
  33    -0.0039590455027963
  34    -5.0742579848911e-05
  35    -2.3574316523064e-05
  36    -4.5081830496798e-05
  37    0.00075807669813954
  38    0.00017269461103036
  39    2.2387947005542e-06
  40    -0.00017269461102807
 Sym= A
 Ene=              14
 Spin= Alpha
 Occup=    0.00000
   1    -0.0014274969374268
   2    0.0070127053022742
   3    -2.3574316523471e-05
   4     0.003959045502799
   5    -5.074257984868e-05
   6    0.00020256294012357
   7    -0.0014999118669726
   8    4.3546424318403e-06
   9    -0.00059439595317235
  10    -0.0010042316550332
  11    -0.0046614637997627
  12     0.013528562824425
  13    -8.7554545305142e-05
  14    -8.7554545303216e-05
  15       1.0041674266607
  16     0.028247907224593
  17     -0.06321063744875
  18    0.00059439595317152
  19    0.00059439595317466
  20     0.010805369355229
  21    -0.0014274969374277
  22    0.0070127053022742
  23    0.0039590455027964
  24    -2.3574316525258e-05
  25    -5.0742579851725e-05
  26    0.00020256294012291
  27    -0.0014999118669726
  28    -0.00059439595317241
  29    4.3546424295853e-06
  30    -0.0010042316550325
  31    -1.5078239513164e-05
  32    0.00018668196086532
  33    2.3574316524309e-05
  34    2.3574316523498e-05
  35    5.2136662755799e-06
  36    4.5081830496642e-05
  37    -0.0007580766981396
  38    -0.00017269461102922
  39    -0.00017269461102655
  40    2.2387947015767e-06
 Sym= A
 Ene=              15
 Spin= Alpha
 Occup=    0.00000
   1    -0.012385061039374
   2      0.05541079540323
   3    -0.00020256294012294
   4     0.028247907224592
   5    -0.00020256294012293
   6    0.00043414819339283
   7    -0.006188841822601
   8    1.5078239512828e-05
   9    -0.0014274969374272
  10    -0.0014274969374266
  11    -0.012385061039374
  12      0.05541079540323
  13    -0.0002025629401229
  14    -0.00020256294012389
  15     0.028247907224593
  16       1.2390352976921
  17     -0.48633332305776
  18    0.0046614637997633
  19    0.0046614637997625
  20    0.0046614637997628
  21    -0.012385061039374
  22      0.05541079540323
  23     0.028247907224592
  24    -0.0002025629401231
  25    -0.00020256294012273
  26    0.00043414819339224
  27    -0.0061888418226002
  28    -0.0014274969374268
  29    1.5078239513539e-05
  30    -0.0014274969374273
  31    -8.2065525146552e-05
  32    0.00087229214420379
  33    4.5081830496774e-05
  34    4.508183049636e-05
  35    4.508183049699e-05
  36    0.00043414819339284
  37    -0.0061888418226006
  38    -0.001427496937427
  39    -0.0014274969374273
  40    1.5078239513243e-05
 Sym= A
 Ene=              16
 Spin= Alpha
 Occup=    0.00000
   1      0.05541079540323
   2     -0.19215992288943
   3    0.0014999118669728
   4     -0.06321063744875
   5    0.0014999118669728
   6    -0.0061888418226012
   7     0.031309434503011
   8    -0.00018668196086546
   9    0.0070127053022743
  10    0.0070127053022742
  11      0.05541079540323
  12     -0.19215992288943
  13    0.0014999118669725
  14    0.0014999118669727
  15     -0.06321063744875
  16     -0.48633332305776
  17       1.3542859075056
  18    -0.013528562824426
  19    -0.013528562824426
  20    -0.013528562824425
  21      0.05541079540323
  22     -0.19215992288943
  23     -0.06321063744875
  24    0.0014999118669726
  25    0.0014999118669726
  26    -0.0061888418226002
  27      0.03130943450301
  28    0.0070127053022742
  29    -0.00018668196086529
  30    0.0070127053022743
  31    0.00087229214420368
  32    -0.0060877452405592
  33    -0.00075807669813971
  34    -0.00075807669813954
  35    -0.00075807669813962
  36    -0.0061888418226003
  37      0.03130943450301
  38    0.0070127053022741
  39    0.0070127053022742
  40    -0.00018668196086532
 Sym= A
 Ene=              17
 Spin= Alpha
 Occup=    0.00000
   1    -0.00020256294012317
   2    0.0014999118669726
   3    -0.001004231655034
   4    0.00059439595317189
   5    -4.3546424312311e-06
   6    1.5078239512807e-05
   7    -0.0001866819608654
   8    5.2136662748074e-06
   9    -2.357431652226e-05
  10    -2.3574316525572e-05
  11    -0.00020256294012388
  12    0.0014999118669727
  13    -0.0010042316550331
  14    -4.3546424323273e-06
  15    0.00059439595317153
  16    0.0046614637997633
  17    -0.013528562824426
  18       1.0041674266607
  19    8.7554545303656e-05
  20    8.755454530385e-05
  21    -0.028247907224592
  22      0.06321063744875
  23     0.010805369355227
  24    -0.00059439595317134
  25    -0.00059439595317311
  26    0.0014274969374273
  27    -0.0070127053022742
  28    -5.0742579848974e-05
  29    2.3574316526113e-05
  30    -0.003959045502798
  31    -4.5081830496825e-05
  32    0.00075807669813964
  33    2.2387947021035e-06
  34    0.00017269461102708
  35    0.00017269461102809
  36    0.0014274969374272
  37    -0.0070127053022742
  38    -5.0742579849205e-05
  39    -0.0039590455027972
  40    2.357431652252e-05
 Sym= A
 Ene=              18
 Spin= Alpha
 Occup=    0.00000
   1    -0.028247907224591
   2      0.06321063744875
   3    -0.00059439595317065
   4     0.010805369355228
   5    -0.00059439595317292
   6    0.0014274969374268
   7    -0.0070127053022742
   8    2.3574316523796e-05
   9    -5.0742579847993e-05
  10    -0.0039590455027993
  11    -0.00020256294012298
  12    0.0014999118669728
  13    -4.3546424312598e-06
  14    -0.0010042316550334
  15    0.00059439595317467
  16    0.0046614637997625
  17    -0.013528562824426
  18    8.7554545303629e-05
  19       1.0041674266607
  20    8.7554545306196e-05
  21    -0.00020256294012318
  22    0.0014999118669727
  23    0.00059439595317216
  24    -0.0010042316550344
  25    -4.3546424292209e-06
  26    1.5078239512972e-05
  27    -0.00018668196086521
  28    -2.3574316526387e-05
  29    5.2136662772271e-06
  30    -2.3574316525801e-05
  31    -4.5081830496548e-05
  32    0.00075807669813969
  33    0.00017269461102946
  34    2.2387947022801e-06
  35    0.00017269461102982
  36    0.0014274969374268
  37    -0.0070127053022741
  38    -0.0039590455028016
  39    -5.0742579850127e-05
  40    2.3574316524956e-05
 Sym= A
 Ene=              19
 Spin= Alpha
 Occup=    0.00000
   1    -0.00020256294012317
   2    0.0014999118669726
   3    -4.3546424304879e-06
   4    0.00059439595317425
   5    -0.0010042316550325
   6    0.0014274969374271
   7    -0.0070127053022743
   8    2.3574316524083e-05
   9    -0.0039590455027961
  10    -5.0742579848608e-05
  11    -0.028247907224593
  12      0.06321063744875
  13    -0.00059439595317359
  14    -0.00059439595317236
  15     0.010805369355229
  16    0.0046614637997628
  17    -0.013528562824426
  18    8.7554545303849e-05
  19    8.7554545306225e-05
  20       1.0041674266607
  21    -0.00020256294012296
  22    0.0014999118669727
  23    0.00059439595317107
  24    -4.354642428551e-06
  25    -0.0010042316550319
  26    0.0014274969374273
  27    -0.0070127053022743
  28    -0.0039590455027981
  29    2.3574316523366e-05
  30    -5.0742579851692e-05
  31    -4.5081830496895e-05
  32    0.00075807669813954
  33    0.00017269461103022
  34    0.00017269461102774
  35    2.2387947017389e-06
  36    1.507823951342e-05
  37    -0.00018668196086529
  38    -2.3574316523727e-05
  39    -2.3574316524778e-05
  40    5.213666275361e-06
 Sym= A
 Ene=              20
 Spin= Alpha
 Occup=    0.00000
   1    0.00043414819339279
   2    -0.0061888418226003
   3    0.0014274969374268
   4    -0.0014274969374271
   5    1.5078239512849e-05
   6    -8.2065525146457e-05
   7    0.00087229214420395
   8    -4.5081830496932e-05
   9    4.5081830496671e-05
  10    4.5081830496361e-05
  11    0.0004341481933925
  12    -0.0061888418226004
  13    0.0014274969374272
  14    1.5078239513174e-05
  15    -0.0014274969374277
  16    -0.012385061039374
  17      0.05541079540323
  18    -0.028247907224592
  19    -0.00020256294012319
  20    -0.00020256294012297
  21       1.2390352976921
  22     -0.48633332305776
  23    -0.004661463799763
  24    0.0046614637997628
  25    0.0046614637997625
  26    -0.012385061039374
  27      0.05541079540323
  28    0.00020256294012308
  29    -0.00020256294012229
  30     0.028247907224592
  31    0.00043414819339261
  32    -0.0061888418226007
  33    -1.5078239513653e-05
  34    -0.0014274969374274
  35    -0.001427496937427
  36    -0.012385061039374
  37      0.05541079540323
  38    0.00020256294012315
  39     0.028247907224593
  40    -0.00020256294012318
 Sym= A
 Ene=              21
 Spin= Alpha
 Occup=    0.00000
   1    -0.0061888418226003
   2      0.03130943450301
   3    -0.0070127053022742
   4    0.0070127053022742
   5    -0.00018668196086507
   6    0.00087229214420349
   7    -0.0060877452405592
   8    0.00075807669813967
   9    -0.00075807669813953
  10    -0.00075807669813955
  11    -0.0061888418226003
  12     0.031309434503011
  13    -0.0070127053022744
  14    -0.00018668196086517
  15    0.0070127053022742
  16      0.05541079540323
  17     -0.19215992288943
  18      0.06321063744875
  19    0.0014999118669727
  20    0.0014999118669727
  21     -0.48633332305776
  22       1.3542859075056
  23     0.013528562824426
  24    -0.013528562824426
  25    -0.013528562824426
  26      0.05541079540323
  27     -0.19215992288943
  28    -0.0014999118669725
  29    0.0014999118669728
  30     -0.06321063744875
  31    -0.0061888418226008
  32     0.031309434503011
  33    0.00018668196086529
  34    0.0070127053022742
  35    0.0070127053022743
  36      0.05541079540323
  37     -0.19215992288943
  38    -0.0014999118669728
  39     -0.06321063744875
  40    0.0014999118669726
 Sym= A
 Ene=              22
 Spin= Alpha
 Occup=    0.00000
   1    -0.0014274969374268
   2    0.0070127053022742
   3    -5.074257984895e-05
   4    0.0039590455027966
   5    -2.3574316525505e-05
   6    4.5081830496798e-05
   7    -0.00075807669813954
   8    2.2387947021721e-06
   9    -0.00017269461103046
  10    -0.00017269461103026
  11    -0.0014274969374272
  12    0.0070127053022743
  13    -5.0742579848902e-05
  14    -2.3574316522696e-05
  15    0.0039590455027964
  16     0.028247907224592
  17     -0.06321063744875
  18     0.010805369355227
  19    0.00059439595317214
  20    0.00059439595317108
  21    -0.004661463799763
  22     0.013528562824426
  23       1.0041674266607
  24    -8.7554545304299e-05
  25    -8.7554545305438e-05
  26    0.00020256294012289
  27    -0.0014999118669726
  28    -0.0010042316550334
  29    4.3546424277166e-06
  30    -0.00059439595317324
  31    -1.507823951341e-05
  32    0.00018668196086518
  33    5.213666275476e-06
  34    2.3574316525882e-05
  35    2.3574316522441e-05
  36    0.00020256294012354
  37    -0.0014999118669726
  38    -0.0010042316550346
  39    -0.00059439595317219
  40    4.3546424295136e-06
 Sym= A
 Ene=              23
 Spin= Alpha
 Occup=    0.00000
   1    0.0014274969374268
   2    -0.0070127053022742
   3    0.0039590455027976
   4    -5.074257984977e-05
   5    2.3574316523806e-05
   6    -4.5081830496703e-05