[Molden Format]
made by pyscf v[2.0.1]
[Atoms] (AU)
He   1   2     1.58445976640282    -1.58445976640282     1.58445976640282
He   2   2     1.58445976640282    -1.58445976640282    -1.58445976640282
He   3   2     1.58445976640282     1.58445976640282    -1.58445976640282
He   4   2     1.58445976640282     1.58445976640282     1.58445976640282
He   5   2    -1.58445976640282     1.58445976640282     1.58445976640282
He   6   2    -1.58445976640282     1.58445976640282    -1.58445976640282
He   7   2    -1.58445976640282    -1.58445976640282    -1.58445976640282
He   8   2    -1.58445976640282    -1.58445976640282     1.58445976640282
[GTO]
1 0
 s    3 1.00
                 38.36   0.040176075383249
                  5.77    0.26136807476949
                  1.24    0.79307123949544
 s    1 1.00
                0.2976                   1
 p    1 1.00
                 1.275                   1

2 0
 s    3 1.00
                 38.36   0.040176075383249
                  5.77    0.26136807476949
                  1.24    0.79307123949544
 s    1 1.00
                0.2976                   1
 p    1 1.00
                 1.275                   1

3 0
 s    3 1.00
                 38.36   0.040176075383249
                  5.77    0.26136807476949
                  1.24    0.79307123949544
 s    1 1.00
                0.2976                   1
 p    1 1.00
                 1.275                   1

4 0
 s    3 1.00
                 38.36   0.040176075383249
                  5.77    0.26136807476949
                  1.24    0.79307123949544
 s    1 1.00
                0.2976                   1
 p    1 1.00
                 1.275                   1

5 0
 s    3 1.00
                 38.36   0.040176075383249
                  5.77    0.26136807476949
                  1.24    0.79307123949544
 s    1 1.00
                0.2976                   1
 p    1 1.00
                 1.275                   1

6 0
 s    3 1.00
                 38.36   0.040176075383249
                  5.77    0.26136807476949
                  1.24    0.79307123949544
 s    1 1.00
                0.2976                   1
 p    1 1.00
                 1.275                   1

7 0
 s    3 1.00
                 38.36   0.040176075383249
                  5.77    0.26136807476949
                  1.24    0.79307123949544
 s    1 1.00
                0.2976                   1
 p    1 1.00
                 1.275                   1

8 0
 s    3 1.00
                 38.36   0.040176075383249
                  5.77    0.26136807476949
                  1.24    0.79307123949544
 s    1 1.00
                0.2976                   1
 p    1 1.00
                 1.275                   1

[5d]
[7f]
[9g]

[MO]
 Sym= A
 Ene=               0
 Spin= Alpha
 Occup=    1.00000
   1       1.2390352976921
   2     -0.48633332305776
   3    0.0046614637997631
   4    -0.0046614637997628
   5     0.004661463799763
   6    -0.012385061039374
   7      0.05541079540323
   8    -0.00020256294012242
   9    0.00020256294012252
  10     0.028247907224592
  11     0.000434148193392
  12    -0.0061888418225998
  13    1.5078239513391e-05
  14    0.0014274969374273
  15    -0.0014274969374273
  16    -0.012385061039374
  17      0.05541079540323
  18    -0.00020256294012252
  19    -0.028247907224592
  20    -0.00020256294012248
  21    0.00043414819339244
  22    -0.0061888418225998
  23    -0.0014274969374274
  24    0.0014274969374273
  25    1.507823951334e-05
  26    -8.2065525145154e-05
  27    0.00087229214420264
  28    4.5081830496212e-05
  29    -4.5081830496198e-05
  30    4.508183049626e-05
  31    0.00043414819339199
  32      -0.0061888418226
  33    -0.0014274969374273
  34    -1.5078239513371e-05
  35    -0.0014274969374273
  36    -0.012385061039374
  37      0.05541079540323
  38     0.028247907224592
  39    0.00020256294012252
  40    -0.00020256294012245
 Sym= A
 Ene=               1
 Spin= Alpha
 Occup=    1.00000
   1     -0.48633332305776
   2       1.3542859075056
   3    -0.013528562824426
   4     0.013528562824426
   5    -0.013528562824426
   6      0.05541079540323
   7     -0.19215992288943
   8    0.0014999118669726
   9    -0.0014999118669726
  10     -0.06321063744875
  11    -0.0061888418225997
  12     0.031309434503009
  13    -0.000186681960865
  14    -0.0070127053022743
  15    0.0070127053022742
  16      0.05541079540323
  17     -0.19215992288943
  18    0.0014999118669726
  19      0.06321063744875
  20    0.0014999118669726
  21    -0.0061888418225997
  22      0.03130943450301
  23    0.0070127053022742
  24    -0.0070127053022743
  25    -0.00018668196086499
  26    0.0008722921442021
  27    -0.0060877452405568
  28    -0.00075807669813952
  29    0.00075807669813954
  30    -0.00075807669813951
  31    -0.0061888418225998
  32     0.031309434503009
  33    0.0070127053022742
  34    0.00018668196086501
  35    0.0070127053022742
  36      0.05541079540323
  37     -0.19215992288943
  38     -0.06321063744875
  39    -0.0014999118669726
  40    0.0014999118669726
 Sym= A
 Ene=               2
 Spin= Alpha
 Occup=    1.00000
   1    0.0046614637997631
   2    -0.013528562824426
   3       1.0041674266607
   4    -8.7554545306836e-05
   5    8.7554545303437e-05
   6    -0.0002025629401233
   7    0.0014999118669727
   8    -0.0010042316550347
   9    4.3546424274404e-06
  10    0.00059439595317224
  11    1.5078239513761e-05
  12    -0.00018668196086507
  13    5.2136662774586e-06
  14    2.3574316522512e-05
  15    -2.3574316522443e-05
  16    -0.00020256294012272
  17    0.0014999118669725
  18    -0.0010042316550342
  19    -0.00059439595317423
  20    -4.3546424258913e-06
  21    0.0014274969374274
  22    -0.0070127053022741
  23    -5.074257985313e-05
  24    0.0039590455028029
  25    2.357431652437e-05
  26    -4.5081830496035e-05
  27    0.00075807669813916
  28    2.2387947025102e-06
  29    -0.00017269461102939
  30    0.00017269461102409
  31     0.001427496937427
  32    -0.0070127053022741
  33    -5.0742579852165e-05
  34    -2.3574316525999e-05
  35    -0.0039590455027998
  36    -0.028247907224591
  37     0.063210637448751
  38     0.010805369355227
  39    0.00059439595317312
  40    -0.00059439595317192
 Sym= A
 Ene=               3
 Spin= Alpha
 Occup=    1.00000
   1    -0.0046614637997628
   2     0.013528562824426
   3    -8.7554545306858e-05
   4       1.0041674266607
   5    -8.7554545302933e-05
   6    0.00020256294012357
   7    -0.0014999118669725
   8    4.3546424294524e-06
   9    -0.0010042316550317
  10    -0.00059439595317132
  11    -0.0014274969374277
  12    0.0070127053022742
  13    -2.3574316523323e-05
  14    -5.0742579850246e-05
  15       0.0039590455028
  16     0.028247907224592
  17     -0.06321063744875
  18    0.00059439595317167
  19     0.010805369355228
  20    0.00059439595317231
  21    -0.0014274969374271
  22    0.0070127053022742
  23    0.0039590455027999
  24    -5.0742579852796e-05
  25    -2.3574316526844e-05
  26    4.5081830496198e-05
  27    -0.00075807669813959
  28    -0.0001726946110258
  29    2.2387947019098e-06
  30    -0.0001726946110284
  31    -1.5078239513473e-05
  32    0.00018668196086502
  33    2.3574316524107e-05
  34    5.2136662774343e-06
  35    2.3574316525779e-05
  36    0.00020256294012207
  37    -0.0014999118669726
  38    -0.00059439595317408
  39    -0.0010042316550346
  40    4.3546424274709e-06
 Sym= A
 Ene=               4
 Spin= Alpha
 Occup=    1.00000
   1     0.004661463799763
   2    -0.013528562824426
   3    8.7554545303452e-05
   4    -8.755454530294e-05
   5       1.0041674266607
   6    -0.028247907224591
   7      0.06321063744875
   8    -0.00059439595316951
   9    0.00059439595317446
  10     0.010805369355229
  11    0.0014274969374266
  12    -0.0070127053022742
  13    2.3574316526737e-05
  14    0.0039590455028036
  15    -5.074257985427e-05
  16    -0.00020256294012316
  17    0.0014999118669728
  18    -4.3546424277014e-06
  19    -0.00059439595317142
  20    -0.0010042316550354
  21    1.5078239514071e-05
  22    -0.00018668196086528
  23    -2.3574316523285e-05
  24    2.3574316520925e-05
  25    5.2136662769304e-06
  26    -4.5081830496347e-05
  27    0.00075807669813973
  28    0.00017269461102768
  29    -0.00017269461102461
  30    2.2387947036107e-06
  31     0.001427496937428
  32    -0.0070127053022742
  33    -0.0039590455028004
  34    -2.3574316524436e-05
  35    -5.0742579851173e-05
  36    -0.00020256294012405
  37    0.0014999118669728
  38    0.00059439595317219
  39    4.354642426012e-06
  40    -0.0010042316550341
 Sym= A
 Ene=               5
 Spin= Alpha
 Occup=    1.00000
   1    -0.012385061039374
   2      0.05541079540323
   3    -0.0002025629401233
   4    0.00020256294012357
   5    -0.028247907224591
   6       1.2390352976921
   7     -0.48633332305776
   8    0.0046614637997635
   9    -0.0046614637997623
  10    -0.0046614637997622
  11    -0.012385061039373
  12     0.055410795403229
  13    -0.00020256294012413
  14    -0.028247907224593
  15    0.00020256294012212
  16    0.00043414819339322
  17    -0.0061888418226002
  18    1.5078239513935e-05
  19    0.0014274969374275
  20    0.0014274969374259
  21    -8.206552514785e-05
  22    0.00087229214420408
  23    4.508183049677e-05
  24    -4.5081830497242e-05
  25    -4.5081830495899e-05
  26    0.00043414819339214
  27      -0.0061888418226
  28    -0.0014274969374279
  29    0.0014274969374277
  30    -1.5078239511722e-05
  31    -0.012385061039373
  32      0.05541079540323
  33     0.028247907224593
  34    0.0002025629401233
  35    0.00020256294012197
  36    0.00043414819339346
  37    -0.0061888418226014
  38    -0.0014274969374272
  39    -1.5078239513959e-05
  40    0.0014274969374256
 Sym= A
 Ene=               6
 Spin= Alpha
 Occup=    1.00000
   1      0.05541079540323
   2     -0.19215992288943
   3    0.0014999118669727
   4    -0.0014999118669725
   5      0.06321063744875
   6     -0.48633332305776
   7       1.3542859075056
   8    -0.013528562824425
   9     0.013528562824425
  10     0.013528562824425
  11     0.055410795403229
  12     -0.19215992288943
  13    0.0014999118669725
  14      0.06321063744875
  15    -0.0014999118669727
  16    -0.0061888418226003
  17      0.03130943450301
  18    -0.00018668196086536
  19    -0.0070127053022742
  20    -0.0070127053022741
  21     0.000872292144204
  22    -0.0060877452405595
  23    -0.00075807669813955
  24    0.00075807669813975
  25    0.00075807669813942
  26    -0.0061888418225999
  27      0.03130943450301
  28    0.0070127053022741
  29    -0.0070127053022742
  30    0.00018668196086535
  31      0.05541079540323
  32     -0.19215992288943
  33     -0.06321063744875
  34    -0.0014999118669725
  35    -0.0014999118669728
  36    -0.0061888418226011
  37     0.031309434503012
  38    0.0070127053022742
  39    0.00018668196086514
  40    -0.0070127053022742
 Sym= A
 Ene=               7
 Spin= Alpha
 Occup=    1.00000
   1    -0.00020256294012241
   2    0.0014999118669726
   3    -0.0010042316550347
   4    4.3546424294439e-06
   5    -0.00059439595316951
   6    0.0046614637997635
   7    -0.013528562824425
   8       1.0041674266607
   9    -8.7554545299381e-05
  10    -8.7554545308056e-05
  11    -0.00020256294012479
  12    0.0014999118669725
  13    -0.0010042316550313
  14    -0.00059439595317265
  15    4.3546424322349e-06
  16    1.5078239512999e-05
  17    -0.00018668196086509
  18    5.2136662762276e-06
  19    2.3574316523762e-05
  20    2.3574316523679e-05
  21    -4.5081830496074e-05
  22    0.00075807669813945
  23    2.2387947021677e-06
  24    -0.00017269461102973
  25    -0.0001726946110336
  26    0.0014274969374269
  27    -0.0070127053022742
  28    -5.0742579843993e-05
  29    0.0039590455027985
  30    -2.3574316525383e-05
  31    -0.028247907224592
  32      0.06321063744875
  33     0.010805369355226
  34    0.00059439595317265
  35     0.000594395953177
  36    0.0014274969374261
  37    -0.0070127053022743
  38    -5.0742579851852e-05
  39    -2.3574316526973e-05
  40    0.0039590455028013
 Sym= A
 Ene=               8
 Spin= Alpha
 Occup=    0.00000
   1    0.00020256294012252
   2    -0.0014999118669726
   3    4.3546424274424e-06
   4    -0.0010042316550317
   5    0.00059439595317447
   6    -0.0046614637997623
   7     0.013528562824425
   8    -8.7554545299376e-05
   9       1.0041674266607
  10    8.7554545310742e-05
  11     0.028247907224593
  12     -0.06321063744875
  13    0.00059439595317149
  14     0.010805369355228
  15    -0.00059439595317722
  16    -0.0014274969374269
  17    0.0070127053022741
  18    -2.357431652603e-05
  19    -5.0742579850741e-05
  20    -0.0039590455028014
  21    4.5081830496456e-05
  22    -0.00075807669813952
  23    -0.00017269461102676
  24    2.2387947000498e-06
  25    0.00017269461103411
  26    -0.0014274969374269
  27    0.0070127053022743
  28    0.0039590455027942
  29    -5.0742579848308e-05
  30    2.3574316525276e-05
  31    0.00020256294012328
  32    -0.0014999118669723
  33    -0.00059439595317234
  34    -0.0010042316550317
  35    -4.3546424351458e-06
  36    -1.5078239513231e-05
  37    0.00018668196086523
  38    2.3574316522325e-05
  39    5.213666274509e-06
  40    -2.3574316528839e-05
 Sym= A
 Ene=               9
 Spin= Alpha
 Occup=    0.00000
   1     0.028247907224592
   2     -0.06321063744875
   3    0.00059439595317224
   4    -0.0005943959531713
   5     0.010805369355229
   6    -0.0046614637997622
   7     0.013528562824425
   8    -8.755454530808e-05
   9    8.7554545310759e-05
  10       1.0041674266607
  11    0.0002025629401216
  12    -0.0014999118669726
  13    4.3546424293333e-06
  14    0.00059439595317539
  15    -0.0010042316550355
  16    -0.0014274969374273
  17    0.0070127053022743
  18    -2.3574316523431e-05
  19    -0.003959045502796
  20    -5.0742579853835e-05
  21    4.5081830497503e-05
  22    -0.0007580766981396
  23    -0.00017269461102681
  24    0.00017269461102534
  25    2.238794703827e-06
  26    -1.5078239513413e-05
  27    0.00018668196086503
  28    2.3574316526954e-05
  29    -2.3574316524408e-05
  30    5.2136662758154e-06
  31    0.00020256294012247
  32    -0.0014999118669725
  33    -0.00059439595317032
  34    -4.3546424262662e-06
  35    -0.0010042316550337
  36    -0.0014274969374277
  37    0.0070127053022743
  38    0.0039590455027959
  39    2.3574316520792e-05
  40    -5.0742579850478e-05
 Sym= A
 Ene=              10
 Spin= Alpha
 Occup=    0.00000
   1    0.00043414819339201
   2    -0.0061888418225997
   3    1.5078239513761e-05
   4    -0.0014274969374277
   5    0.0014274969374266
   6    -0.012385061039373
   7     0.055410795403229
   8    -0.00020256294012478
   9     0.028247907224593
  10    0.0002025629401216
  11       1.2390352976921
  12     -0.48633332305776
  13    0.0046614637997635
  14    0.0046614637997624
  15    -0.004661463799762
  16    -0.012385061039374
  17      0.05541079540323
  18    -0.00020256294012308
  19    -0.00020256294012277
  20    -0.028247907224592
  21    0.00043414819339328
  22    -0.0061888418226013
  23    -0.0014274969374275
  24    1.5078239513331e-05
  25    0.0014274969374264
  26    -0.012385061039374
  27      0.05541079540323
  28     0.028247907224593
  29    -0.00020256294012333
  30    0.00020256294012305
  31    0.00043414819339218
  32    -0.0061888418226003
  33    -0.0014274969374274
  34    -0.0014274969374277
  35    -1.5078239511874e-05
  36    -8.2065525147196e-05
  37    0.00087229214420446
  38    4.5081830497094e-05
  39    4.5081830497555e-05
  40    -4.5081830495386e-05
 Sym= A
 Ene=              11
 Spin= Alpha
 Occup=    0.00000
   1    -0.0061888418225998
   2     0.031309434503009
   3    -0.00018668196086507
   4    0.0070127053022742
   5    -0.0070127053022742
   6     0.055410795403229
   7     -0.19215992288943
   8    0.0014999118669725
   9     -0.06321063744875
  10    -0.0014999118669726
  11     -0.48633332305776
  12       1.3542859075056
  13    -0.013528562824426
  14    -0.013528562824426
  15     0.013528562824426
  16      0.05541079540323
  17     -0.19215992288943
  18    0.0014999118669727
  19    0.0014999118669726
  20      0.06321063744875
  21    -0.0061888418226015
  22     0.031309434503011
  23    0.0070127053022742
  24    -0.00018668196086518
  25    -0.0070127053022745
  26      0.05541079540323
  27     -0.19215992288943
  28     -0.06321063744875
  29    0.0014999118669726
  30    -0.0014999118669727
  31      -0.0061888418226
  32      0.03130943450301
  33    0.0070127053022743
  34    0.0070127053022742
  35    0.00018668196086534
  36    0.00087229214420425
  37    -0.0060877452405593
  38    -0.00075807669813953
  39    -0.00075807669813975
  40    0.00075807669813953
 Sym= A
 Ene=              12
 Spin= Alpha
 Occup=    0.00000
   1    1.5078239513399e-05
   2    -0.000186681960865
   3    5.2136662774881e-06
   4    -2.357431652332e-05
   5    2.3574316526744e-05
   6    -0.00020256294012413
   7    0.0014999118669725
   8    -0.0010042316550313
   9    0.00059439595317152
  10    4.3546424293477e-06
  11    0.0046614637997635
  12    -0.013528562824426
  13       1.0041674266607
  14    8.7554545301187e-05
  15    -8.7554545302852e-05
  16    -0.00020256294012329
  17    0.0014999118669724
  18    -0.0010042316550339
  19    -4.3546424271519e-06
  20    -0.00059439595317262
  21    0.0014274969374264
  22    -0.0070127053022742
  23    -5.0742579850224e-05
  24    2.3574316525094e-05
  25    0.0039590455027998
  26    -0.028247907224592
  27      0.06321063744875
  28     0.010805369355224
  29    -0.00059439595316796
  30    0.00059439595317367
  31    0.0014274969374277
  32    -0.0070127053022743
  33    -5.0742579843929e-05
  34    -0.0039590455027976
  35    -2.3574316527265e-05
  36    -4.5081830495913e-05
  37    0.0007580766981396
  38    2.238794702676e-06
  39    0.00017269461103248
  40    -0.00017269461103284
 Sym= A
 Ene=              13
 Spin= Alpha
 Occup=    0.00000
   1    0.0014274969374273
   2    -0.0070127053022743
   3    2.3574316522512e-05
   4    -5.0742579850276e-05
   5    0.0039590455028037
   6    -0.028247907224593
   7      0.06321063744875
   8    -0.00059439595317264
   9     0.010805369355228
  10    0.0005943959531754
  11    0.0046614637997624
  12    -0.013528562824426
  13    8.7554545301169e-05
  14       1.0041674266607
  15    -8.7554545307924e-05
  16    -0.00020256294012259
  17    0.0014999118669727
  18    -4.3546424281945e-06
  19    -0.0010042316550318
  20    -0.000594395953177
  21    1.5078239513008e-05
  22    -0.0001866819608652
  23    -2.357431652567e-05
  24    5.2136662740454e-06
  25    2.3574316525651e-05
  26    -0.0002025629401236
  27    0.0014999118669726
  28    0.00059439595317106
  29    -0.001004231655032
  30    4.3546424358749e-06
  31    0.0014274969374268
  32    -0.0070127053022742
  33    -0.0039590455027917
  34    -5.074257984809e-05
  35    -2.3574316528818e-05
  36    -4.5081830496643e-05
  37    0.00075807669813975
  38    0.00017269461102653
  39    2.2387947000425e-06
  40    -0.00017269461103331
 Sym= A
 Ene=              14
 Spin= Alpha
 Occup=    0.00000
   1    -0.0014274969374273
   2    0.0070127053022742
   3    -2.3574316522416e-05
   4       0.0039590455028
   5    -5.0742579854262e-05
   6    0.00020256294012211
   7    -0.0014999118669727
   8    4.3546424322449e-06
   9    -0.00059439595317724
  10    -0.0010042316550355
  11    -0.004661463799762
  12     0.013528562824426
  13    -8.7554545302878e-05
  14    -8.7554545307924e-05
  15       1.0041674266607
  16     0.028247907224592
  17     -0.06321063744875
  18    0.00059439595317123
  19    0.00059439595317296
  20     0.010805369355231
  21    -0.0014274969374276
  22    0.0070127053022743
  23    0.0039590455027964
  24    -2.3574316519264e-05
  25    -5.0742579847691e-05
  26    0.00020256294012347
  27    -0.0014999118669726
  28    -0.00059439595317297
  29    4.3546424318551e-06
  30    -0.0010042316550337
  31    -1.5078239512563e-05
  32    0.00018668196086512
  33    2.3574316523556e-05
  34    2.3574316524857e-05
  35    5.2136662775904e-06
  36    4.5081830497621e-05
  37    -0.00075807669813956
  38    -0.00017269461102513
  39    -0.00017269461102647
  40    2.238794702165e-06
 Sym= A
 Ene=              15
 Spin= Alpha
 Occup=    0.00000
   1    -0.012385061039374
   2      0.05541079540323
   3    -0.00020256294012272
   4     0.028247907224592
   5    -0.00020256294012316
   6    0.00043414819339323
   7    -0.0061888418226003
   8    1.5078239512991e-05
   9    -0.0014274969374269
  10    -0.0014274969374273
  11    -0.012385061039374
  12      0.05541079540323
  13    -0.00020256294012329
  14    -0.00020256294012259
  15     0.028247907224592
  16       1.2390352976921
  17     -0.48633332305776
  18    0.0046614637997629
  19    0.0046614637997627
  20    0.0046614637997627
  21    -0.012385061039374
  22      0.05541079540323
  23     0.028247907224593
  24    -0.0002025629401231
  25    -0.00020256294012343
  26    0.00043414819339174
  27    -0.0061888418226001
  28    -0.0014274969374276
  29    1.5078239512672e-05
  30    -0.0014274969374269
  31    -8.2065525146601e-05
  32    0.00087229214420321
  33    4.5081830496845e-05
  34    4.5081830496545e-05
  35    4.5081830496482e-05
  36    0.00043414819339222
  37    -0.0061888418225998
  38    -0.0014274969374272
  39    -0.0014274969374264
  40    1.5078239513343e-05
 Sym= A
 Ene=              16
 Spin= Alpha
 Occup=    0.00000
   1      0.05541079540323
   2     -0.19215992288943
   3    0.0014999118669725
   4     -0.06321063744875
   5    0.0014999118669729
   6    -0.0061888418226002
   7      0.03130943450301
   8    -0.00018668196086508
   9    0.0070127053022741
  10    0.0070127053022743
  11      0.05541079540323
  12     -0.19215992288943
  13    0.0014999118669724
  14    0.0014999118669727
  15     -0.06321063744875
  16     -0.48633332305776
  17       1.3542859075056
  18    -0.013528562824425
  19    -0.013528562824425
  20    -0.013528562824426
  21      0.05541079540323
  22     -0.19215992288943
  23     -0.06321063744875
  24    0.0014999118669726
  25    0.0014999118669727
  26      -0.0061888418226
  27      0.03130943450301
  28    0.0070127053022743
  29    -0.00018668196086505
  30    0.0070127053022742
  31    0.00087229214420324
  32    -0.0060877452405581
  33    -0.00075807669813963
  34    -0.00075807669813956
  35    -0.00075807669813965
  36    -0.0061888418225999
  37      0.03130943450301
  38    0.0070127053022742
  39    0.0070127053022743
  40    -0.00018668196086526
 Sym= A
 Ene=              17
 Spin= Alpha
 Occup=    0.00000
   1    -0.00020256294012251
   2    0.0014999118669726
   3    -0.0010042316550342
   4    0.00059439595317165
   5    -4.3546424276867e-06
   6    1.5078239513934e-05
   7    -0.00018668196086536
   8    5.2136662762675e-06
   9    -2.3574316526037e-05
  10    -2.3574316523389e-05
  11    -0.00020256294012308
  12    0.0014999118669727
  13    -0.0010042316550339
  14    -4.3546424282099e-06
  15    0.00059439595317126
  16    0.0046614637997629
  17    -0.013528562824425
  18       1.0041674266607
  19    8.7554545307322e-05
  20    8.7554545303508e-05
  21    -0.028247907224593
  22      0.06321063744875
  23     0.010805369355229
  24    -0.00059439595317995
  25    -0.00059439595317306
  26    0.0014274969374268
  27    -0.0070127053022743
  28    -5.0742579850328e-05
  29    2.357431652217e-05
  30    -0.0039590455027954
  31    -4.5081830497038e-05
  32    0.00075807669813936
  33    2.2387947027005e-06
  34    0.00017269461103029
  35    0.00017269461102911
  36    0.0014274969374258
  37    -0.0070127053022742
  38    -5.0742579853002e-05
  39    -0.0039590455027994
  40    2.3574316522436e-05
 Sym= A
 Ene=              18
 Spin= Alpha
 Occup=    0.00000
   1    -0.028247907224592
   2      0.06321063744875
   3    -0.00059439595317422
   4     0.010805369355228
   5    -0.00059439595317144
   6    0.0014274969374275
   7    -0.0070127053022742
   8    2.3574316523746e-05
   9    -5.074257985071e-05
  10    -0.0039590455027959
  11    -0.00020256294012278
  12    0.0014999118669726
  13    -4.3546424271486e-06
  14    -0.0010042316550317
  15    0.00059439595317295
  16    0.0046614637997627
  17    -0.013528562824425
  18    8.7554545307317e-05
  19       1.0041674266607
  20    8.7554545307505e-05
  21    -0.00020256294012218
  22    0.0014999118669726
  23    0.00059439595317201
  24    -0.0010042316550348
  25    -4.3546424300217e-06
  26    1.5078239513359e-05
  27    -0.00018668196086491
  28    -2.3574316523392e-05
  29    5.2136662773439e-06
  30    -2.3574316526816e-05
  31    -4.5081830496545e-05
  32    0.00075807669813957
  33    0.00017269461102859
  34    2.2387947020741e-06
  35    0.00017269461102684
  36    0.0014274969374269
  37    -0.0070127053022741
  38    -0.0039590455027994
  39    -5.0742579852635e-05
  40    2.3574316525606e-05
 Sym= A
 Ene=              19
 Spin= Alpha
 Occup=    0.00000
   1    -0.00020256294012247
   2    0.0014999118669726
   3    -4.3546424258998e-06
   4    0.00059439595317231
   5    -0.0010042316550354
   6    0.0014274969374259
   7    -0.0070127053022741
   8    2.3574316523689e-05
   9    -0.0039590455028014
  10    -5.0742579853879e-05
  11    -0.028247907224592
  12      0.06321063744875
  13    -0.00059439595317262
  14    -0.00059439595317701
  15     0.010805369355231
  16    0.0046614637997627
  17    -0.013528562824426
  18    8.7554545303479e-05
  19    8.7554545307506e-05
  20       1.0041674266607
  21    -0.00020256294012443
  22    0.0014999118669727
  23    0.00059439595317143
  24    -4.3546424279652e-06
  25    -0.0010042316550341
  26    0.0014274969374268
  27    -0.0070127053022743
  28    -0.0039590455027956
  29    2.3574316524356e-05
  30    -5.0742579847868e-05
  31    -4.5081830496329e-05
  32    0.00075807669813959
  33    0.00017269461103028
  34    0.00017269461103052
  35    2.2387947024517e-06
  36    1.5078239514129e-05
  37    -0.00018668196086527
  38    -2.3574316522369e-05
  39    -2.3574316519497e-05
  40    5.2136662781377e-06
 Sym= A
 Ene=              20
 Spin= Alpha
 Occup=    0.00000
   1    0.00043414819339245
   2    -0.0061888418225997
   3    0.0014274969374274
   4    -0.001427496937427
   5    1.5078239514077e-05
   6    -8.2065525147846e-05
   7    0.00087229214420394
   8    -4.5081830496065e-05
   9    4.5081830496455e-05
  10    4.5081830497513e-05
  11    0.00043414819339332
  12    -0.0061888418226015
  13    0.0014274969374264
  14    1.5078239513013e-05
  15    -0.0014274969374276
  16    -0.012385061039374
  17      0.05541079540323
  18    -0.028247907224593
  19    -0.00020256294012219
  20    -0.00020256294012443
  21       1.2390352976921
  22     -0.48633332305776
  23    -0.0046614637997619
  24    0.0046614637997617
  25    0.0046614637997645
  26    -0.012385061039374
  27     0.055410795403231
  28    0.00020256294012282
  29    -0.00020256294012338
  30     0.028247907224593
  31    0.00043414819339299
  32    -0.0061888418226002
  33    -1.5078239512502e-05
  34    -0.0014274969374267
  35    -0.0014274969374277
  36    -0.012385061039373
  37     0.055410795403229
  38    0.00020256294012204
  39     0.028247907224592
  40    -0.00020256294012434
 Sym= A
 Ene=              21
 Spin= Alpha
 Occup=    0.00000
   1    -0.0061888418225998
   2      0.03130943450301
   3    -0.0070127053022741
   4    0.0070127053022742
   5    -0.00018668196086528
   6    0.00087229214420414
   7    -0.0060877452405595
   8    0.00075807669813946
   9    -0.00075807669813952
  10    -0.00075807669813959
  11    -0.0061888418226013
  12     0.031309434503011
  13    -0.0070127053022742
  14    -0.0001866819608652
  15    0.0070127053022743
  16      0.05541079540323
  17     -0.19215992288943
  18      0.06321063744875
  19    0.0014999118669726
  20    0.0014999118669727
  21     -0.48633332305776
  22       1.3542859075056
  23     0.013528562824426
  24    -0.013528562824425
  25    -0.013528562824426
  26      0.05541079540323
  27     -0.19215992288943
  28    -0.0014999118669728
  29    0.0014999118669726
  30     -0.06321063744875
  31    -0.0061888418226006
  32      0.03130943450301
  33    0.00018668196086527
  34    0.0070127053022742
  35    0.0070127053022741
  36     0.055410795403229
  37     -0.19215992288943
  38    -0.0014999118669725
  39     -0.06321063744875
  40    0.0014999118669726
 Sym= A
 Ene=              22
 Spin= Alpha
 Occup=    0.00000
   1    -0.0014274969374274
   2    0.0070127053022742
   3    -5.074257985316e-05
   4    0.0039590455027999
   5    -2.3574316523314e-05
   6    4.5081830496768e-05
   7    -0.00075807669813955
   8    2.2387947021809e-06
   9    -0.00017269461102678
  10    -0.00017269461102681
  11    -0.0014274969374275
  12    0.0070127053022742
  13    -5.0742579850268e-05
  14    -2.3574316525687e-05
  15    0.0039590455027965
  16     0.028247907224593
  17     -0.06321063744875
  18     0.010805369355229
  19    0.00059439595317201
  20    0.00059439595317146
  21    -0.0046614637997618
  22     0.013528562824426
  23       1.0041674266607
  24    -8.7554545305989e-05
  25    -8.7554545302629e-05
  26    0.0002025629401235
  27    -0.0014999118669726
  28    -0.0010042316550338
  29    4.3546424314661e-06
  30    -0.00059439595317313
  31    -1.5078239512807e-05
  32    0.00018668196086509
  33    5.2136662761167e-06
  34    2.3574316522503e-05
  35    2.3574316522275e-05
  36    0.00020256294012247
  37    -0.0014999118669725
  38    -0.0010042316550346
  39    -0.00059439595317966
  40    4.3546424307971e-06
 Sym= A
 Ene=              23
 Spin= Alpha
 Occup=    0.00000
   1    0.0014274969374273
   2    -0.0070127053022743
   3    0.0039590455028029
   4    -5.0742579852784e-05
   5    2.3574316520936e-05
   6    -4.5081830497242e-05