 &FCI NORB=  26,NELEC=16,MS2=0,
  ORBSYM=1,1,1,1,1,1,1,1,1,1,1,1,1,1,1,1,1,1,1,1,1,1,1,1,1,1,
  ISYM=1,
 &END
 0.9524378386133716    1    1    1    1
 -0.0004923707879366696    2    1    1    1
 0.03413325369380277    2    1    2    1
 0.8815457283525416    2    2    1    1
 -0.0005256298481591257    2    2    2    1
 0.9479797106523551    2    2    2    2
 -0.0009813955157122406    3    1    1    1
 0.00125861352701352    3    1    2    1
 -0.000432291763525327    3    1    2    2
 0.03740155881720632    3    1    3    1
 -0.002764515175424769    3    2    1    1
 -0.0006324111615477535    3    2    2    1
 -8.198609722336004e-05    3    2    2    2
 0.0007578523318771466    3    2    3    1
 0.0358028553974403    3    2    3    2
 0.8449275190885871    3    3    1    1
 -0.001002772411754972    3    3    2    1
 0.847059052214148    3    3    2    2
 3.910163387686862e-05    3    3    3    1
 0.0005866277484109001    3    3    3    2
 0.8944870305387651    3    3    3    3
 0.002292604872727464    4    1    1    1
 -0.004952431468863319    4    1    2    1
 -0.01219256917327666    4    1    2    2
 -0.0008063365501951909    4    1    3    1
 0.004508014964182616    4    1    3    2
 0.01167215453616111    4    1    3    3
 0.03281352263271545    4    1    4    1
 0.008045683157798026    4    2    1    1
 0.007049264586605983    4    2    2    1
 -0.002376873573834055    4    2    2    2
 -0.009070316281308215    4    2    3    1
 0.00183069083358379    4    2    3    2
 -0.01199272049078724    4    2    3    3
 -0.003019990979157984    4    2    4    1
 0.03529354959413022    4    2    4    2
 0.002248861900642803    4    3    1    1
 0.004700548944251422    4    3    2    1
 -0.004865896640462686    4    3    2    2
 -0.004449243169501313    4    3    3    1
 0.004354216074004097    4    3    3    2
 -6.105231587427949e-05    4    3    3    3
 0.002240176888283011    4    3    4    1
 0.006968537376423217    4    3    4    2
 0.02542466630593669    4    3    4    3
 0.8743560295344662    4    4    1    1
 0.005470490292896806    4    4    2    1
 0.8672941940851153    4    4    2    2
 -0.005113964066682676    4    4    3    1
 -0.01426023073272445    4    4    3    2
 0.8593105962543893    4    4    3    3
 0.00215299704527102    4    4    4    1
 -0.002308812235774639    4    4    4    2
 -0.0002182806313917603    4    4    4    3
 0.928191159951699    4    4    4    4
 -0.002404306776396797    5    1    1    1
 -0.004585815352760089    5    1    2    1
 0.01029559053794816    5    1    2    2
 0.002380473976008202    5    1    3    1
 -0.003944960285012869    5    1    3    2
 -0.01000328222399384    5    1    3    3
 -0.007773026713696379    5    1    4    1
 -0.003620728069933128    5    1    4    2
 -0.005749175899105176    5    1    4    3
 -0.006506852324510516    5    1    4    4
 0.0304674020184871    5    1    5    1
 0.00627067001858714    5    2    1    1
 -0.006375065206211859    5    2    2    1
 -0.00296470274004361    5    2    2    2
 -0.007421461765563143    5    2    3    1
 -0.002496831267379414    5    2    3    2
 -0.01023789496830656    5    2    3    3
 0.0008353228698065885    5    2    4    1
 0.00443804668202756    5    2    4    2
 -0.0002180788139318932    5    2    4    3
 -0.004646533481599543    5    2    4    4
 0.002498785652269429    5    2    5    1
 0.02973306285710069    5    2    5    2
 -0.005200794524222546    5    3    1    1
 0.01137701160657351    5    3    2    1
 0.005397764156622914    5    3    2    2
 0.003511510034494062    5    3    3    1
 0.00286902107774959    5    3    3    2
 0.001795247340810084    5    3    3    3
 -0.005716728925118282    5    3    4    1
 0.002938000891668735    5    3    4    2
 0.002785940570644077    5    3    4    3
 0.001522306775352316    5    3    4    4
 -0.002098378973496733    5    3    5    1
 -0.008458068697456795    5    3    5    2
 0.0319397935710526    5    3    5    3
 0.01278026869665232    5    4    1    1
 0.002786957159247872    5    4    2    1
 -0.01146120091849049    5    4    2    2
 0.01195972432106315    5    4    3    1
 -0.003273295234406583    5    4    3    2
 -0.00845470244789428    5    4    3    3
 0.002224227663999601    5    4    4    1
 0.0007610521160691225    5    4    4    2
 -0.0003341819419968967    5    4    4    3
 -0.002754462196822154    5    4    4    4
 -0.001952032784667058    5    4    5    1
 -3.82967740194975e-05    5    4    5    2
 -0.001177778283725618    5    4    5    3
 0.04062927122954994    5    4    5    4
 0.8710066382979414    5    5    1    1
 -0.005019080272441541    5    5    2    1
 0.8707783583273335    5    5    2    2
 0.003206741704947547    5    5    3    1
 0.01673527975704991    5    5    3    2
 0.8382103205830896    5    5    3    3
 0.006021487664065727    5    5    4    1
 -0.00217556681653499    5    5    4    2
 0.001846401820242801    5    5    4    3
 0.8393394890113599    5    5    4    4
 -0.002345382548531861    5    5    5    1
 -0.002988333146869727    5    5    5    2
 0.0006903596122862993    5    5    5    3
 -0.002590626916680018    5    5    5    4
 0.9130183167194902    5    5    5    5
 0.007141818242927823    6    1    1    1
 0.0002748940640235747    6    1    2    1
 0.008629109128467434    6    1    2    2
 0.01025248637010565    6    1    3    1
 0.0001197012403950033    6    1    3    2
 0.007541553728780655    6    1    3    3
 -0.0006383140720451146    6    1    4    1
 -0.002794616366449705    6    1    4    2
 -0.001527586203253312    6    1    4    3
 0.006295189134785562    6    1    4    4
 0.002200928319437465    6    1    5    1
 -0.002220016967699391    6    1    5    2
 0.001021203143125429    6    1    5    3
 0.003072429870233811    6    1    5    4
 0.00852040847702786    6    1    5    5
 0.02087779370186258    6    1    6    1
 0.001013874258627482    6    2    1    1
 -1.960831999475616e-05    6    2    2    1
 0.001138510018521326    6    2    2    2
 -2.65944033353246e-05    6    2    3    1
 0.009515344598803524    6    2    3    2
 0.00120347320333923    6    2    3    3
 0.001047034487033487    6    2    4    1
 0.0006662275911301553    6    2    4    2
 0.001112097593188846    6    2    4    3
 -0.002436864421020077    6    2    4    4
 -0.001227593588069036    6    2    5    1
 0.0007743254505686263    6    2    5    2
 0.0003940985566441426    6    2    5    3
 -0.0008910116597749271    6    2    5    4
 0.005451003860576674    6    2    5    5
 -0.0008429734469377903    6    2    6    1
 0.01859086633426306    6    2    6    2
 0.2070946962865618    6    3    1    1
 0.0005863189883226149    6    3    2    1
 0.20873045215324    6    3    2    2
 0.0009374618537581435    6    3    3    1
 0.0006150679339568116    6    3    3    2
 0.2237804738716264    6    3    3    3
 0.003005572512799945    6    3    4    1
 -0.003468053081533654    6    3    4    2
 -0.00012566740449974    6    3    4    3
 0.2129427080456072    6    3    4    4
 -0.002967639958786386    6    3    5    1
 -0.003765328147363279    6    3    5    2
 0.002601847685480406    6    3    5    3
 -0.002623702888945555    6    3    5    4
 0.2072176955183045    6    3    5    5
 0.005298122375180113    6    3    6    1
 0.0003913502289562847    6    3    6    2
 0.1745224378245847    6    3    6    3
 -0.001752522672051435    6    4    1    1
 0.001197001639679509    6    4    2    1
 -0.00554040238072327    6    4    2    2
 -0.0004443799883834166    6    4    3    1
 0.0009983529609856477    6    4    3    2
 -0.003943399302760709    6    4    3    3
 0.001101831374996322    6    4    4    1
 0.002232894476333739    6    4    4    2
 0.007255891585913853    6    4    4    3
 -0.003957661095257137    6    4    4    4
 -0.001839287754295997    6    4    5    1
 4.089070376873758e-05    6    4    5    2
 0.0005375221545009724    6    4    5    3
 0.002682467644924342    6    4    5    4
 -0.00292076702768009    6    4    5    5
 -0.001472214444677233    6    4    6    1
 0.001854785861545099    6    4    6    2
 -0.002992016296977941    6    4    6    3
 0.01483714137377535    6    4    6    4
 0.04793798021853975    6    5    1    1
 0.002411159458710618    6    5    2    1
 0.05112732681371935    6    5    2    2
 0.001254319903270506    6    5    3    1
 0.001851822469364047    6    5    3    2
 0.04839563436418559    6    5    3    3
 -0.001353106826000611    6    5    4    1
 0.0006445974506071299    6    5    4    2
 0.0007422449534669563    6    5    4    3
 0.04835445571175659    6    5    4    4
 -0.0005417673532518658    6    5    5    1
 -0.002759650180229633    6    5    5    2
 0.009223839063592221    6    5    5    3
 -0.0007717591348115714    6    5    5    4
 0.05303283562788333    6    5    5    5
 0.003098727025619537    6    5    6    1
 0.002618555799800277    6    5    6    2
 0.03766818412737059    6    5    6    3
 0.0004890266920539208    6    5    6    4
 0.02614979632020959    6    5    6    5
 0.8249634217462568    6    6    1    1
 0.002820350237703522    6    6    2    1
 0.8304104679541192    6    6    2    2
 0.003152672147804865    6    6    3    1
 0.00221327329068786    6    6    3    2
 0.857665997745486    6    6    3    3
 0.007199666918809151    6    6    4    1
 -0.009184208951785051    6    6    4    2
 0.0001033485685521814    6    6    4    3
 0.8351211855471514    6    6    4    4
 -0.008194082743189559    6    6    5    1
 -0.01171162651292667    6    6    5    2
 0.01257690264854499    6    6    5    3
 -0.007075948238010466    6    6    5    4
 0.8211142862367677    6    6    5    5
 0.008440381501386179    6    6    6    1
 0.00161649500126327    6    6    6    2
 0.2118706493710265    6    6    6    3
 -0.003845846964109135    6    6    6    4
 0.04980338458043329    6    6    6    5
 0.8690009330002132    6    6    6    6
 -0.01036786597863265    7    1    1    1
 0.0004395803999775446    7    1    2    1
 -0.0140653727781711    7    1    2    2
 0.002424253922588607    7    1    3    1
 0.001708752990342907    7    1    3    2
 -0.00691409284394149    7    1    3    3
 0.003604050546760339    7    1    4    1
 0.0001217254647129219    7    1    4    2
 0.001489643760565333    7    1    4    3
 -0.009880698515786273    7    1    4    4
 -0.008279573775351932    7    1    5    1
 -0.00105469472447014    7    1    5    2
 0.0003940420930503998    7    1    5    3
 0.001621150430768063    7    1    5    4
 -0.008977181811495639    7    1    5    5
 -0.0009577353947829595    7    1    6    1
 0.001447322666983797    7    1    6    2
 -0.002491240674574305    7    1    6    3
 0.002521267595454008    7    1    6    4
 -0.001395191422039169    7    1    6    5
 -0.007614163737221391    7    1    6    6
 0.01730197438595636    7    1    7    1
 -0.01477140045184139    7    2    1    1
 0.001239917352262381    7    2    2    1
 -0.01399780111766756    7    2    2    2
 0.001942069312969677    7    2    3    1
 0.003214548850904967    7    2    3    2
 -0.01024768577533967    7    2    3    3
 0.0002930624326073643    7    2    4    1
 0.0003479919300907577    7    2    4    2
 0.0005390132481790194    7    2    4    3
 -0.01336728878670922    7    2    4    4
 -0.001170904740388098    7    2    5    1
 -0.007923309700535458    7    2    5    2
 0.00241912346329263    7    2    5    3
 0.0001923971394810296    7    2    5    4
 -0.01120287222505082    7    2    5    5
 0.001526082078617464    7    2    6    1
 0.001797587622499244    7    2    6    2
 -0.005032780103672774    7    2    6    3
 0.001070442538785209    7    2    6    4
 0.001673494013816413    7    2    6    5
 -0.009816102809842809    7    2    6    6
 0.002745802774807671    7    2    7    1
 0.01664448645068741    7    2    7    2
 0.05305697538203306    7    3    1    1
 -0.002925032255858069    7    3    2    1
 0.04908773869642242    7    3    2    2
 -0.001150007481681652    7    3    3    1
 -0.0004492209139774303    7    3    3    2
 0.05358508199291642    7    3    3    3
 0.002822116770195151    7    3    4    1
 -0.001372904069641492    7    3    4    2
 0.0004083380890178707    7    3    4    3
 0.05091605518627036    7    3    4    4
 -0.0003557177359475832    7    3    5    1
 0.001927302021831767    7    3    5    2
 -0.009598306817470792    7    3    5    3
 0.0002149272602370783    7    3    5    4
 0.05093164540774068    7    3    5    5
 -0.001536954901677802    7    3    6    1
 -0.001469514755626354    7    3    6    2
 0.03740813937455949    7    3    6    3
 0.000209618835696309    7    3    6    4
 -0.007665621884923348    7    3    6    5
 0.04796366963777728    7    3    6    6
 -0.001229914307755958    7    3    7    1
 -0.004951652639911896    7    3    7    2
 0.02593305440572198    7    3    7    3
 0.02776086249269384    7    4    1    1
 -0.0002323168299233505    7    4    2    1
 0.03372824637754417    7    4    2    2
 -0.003381480125074117    7    4    3    1
 0.0003389421586876594    7    4    3    2
 0.0327850570673849    7    4    3    3
 -0.001109257331997784    7    4    4    1
 -0.0005339177763049769    7    4    4    2
 0.001200843521871936    7    4    4    3
 0.0342706840607731    7    4    4    4
 0.0003777017459525057    7    4    5    1
 -0.0001582521523547751    7    4    5    2
 0.0008455644936212454    7    4    5    3
 -0.01174096095385493    7    4    5    4
 0.03063713865698662    7    4    5    5
 -0.004626921709738957    7    4    6    1
 0.0008229370924674439    7    4    6    2
 0.02457063678566743    7    4    6    3
 -0.001816834822816218    7    4    6    4
 0.005960068724930056    7    4    6    5
 0.03148386346245281    7    4    6    6
 -0.002224906692777245    7    4    7    1
 -0.00112834788984281    7    4    7    2
 0.005917067968329148    7    4    7    3
 0.02384700560131622    7    4    7    4
 -0.2117870155964208    7    5    1    1
 0.002446240311489797    7    5    2    1
 -0.2123332853363414    7    5    2    2
 0.0002991483881532813    7    5    3    1
 -0.004057415633008327    7    5    3    2
 -0.2035563148662213    7    5    3    3
 -0.001509006411182656    7    5    4    1
 0.0008462119462474697    7    5    4    2
 0.000176791096238355    7    5    4    3
 -0.2044948424378858    7    5    4    4
 0.0002999957849057726    7    5    5    1
 -5.073707175708055e-05    7    5    5    2
 0.003141679897743162    7    5    5    3
 0.002730036225048181    7    5    5    4
 -0.2244799497370327    7    5    5    5
 -0.005983638153199936    7    5    6    1
 -0.007616467107040157    7    5    6    2
 -0.1395410616355876    7    5    6    3
 0.002417754484688694    7    5    6    4
 -0.03742560906891051    7    5    6    5
 -0.1983034955063827    7    5    6    6
 0.007187830490371394    7    5    7    1
 0.00857721396976378    7    5    7    2
 -0.03703118641287041    7    5    7    3
 -0.02331369795313459    7    5    7    4
 0.1736195430610341    7    5    7    5
 0.0007625100165965485    7    6    1    1
 -0.007220800600343887    7    6    2    1
 -0.008882450559029361    7    6    2    2
 -0.004878553768359998    7    6    3    1
 -0.006825269560640641    7    6    3    2
 0.010842058889578    7    6    3    3
 0.006227904004407129    7    6    4    1
 -0.003154830011885843    7    6    4    2
 0.0002179636092503249    7    6    4    3
 0.005376707757720368    7    6    4    4
 -0.001841942569238857    7    6    5    1
 0.004887659514539767    7    6    5    2
 -0.0225021568470377    7    6    5    3
 0.0009211645889749193    7    6    5    4
 -0.01353453124713435    7    6    5    5
 -0.001383322881122647    7    6    6    1
 -0.001447607898943997    7    6    6    2
 0.0009747484926764478    7    6    6    3
 0.0001625361686008847    7    6    6    4
 -0.006519012507640565    7    6    6    5
 -0.0008200007190222881    7    6    6    6
 0.0003074117177228404    7    6    7    1
 -0.001603099780353895    7    6    7    2
 0.00609718669314376    7    6    7    3
 -0.00018078692026387    7    6    7    4
 0.001914035230149816    7    6    7    5
 0.02919233830229269    7    6    7    6
 0.8361499370376857    7    7    1    1
 -0.009803414587620107    7    7    2    1
 0.8372457312709858    7    7    2    2
 -0.002966199385932456    7    7    3    1
 0.01164809927705865    7    7    3    2
 0.809679395113121    7    7    3    3
 0.006522968800274133    7    7    4    1
 -0.003544378747706958    7    7    4    2
 0.001288818079164976    7    7    4    3
 0.8109479122423744    7    7    4    4
 0.001068540150938364    7    7    5    1
 0.003193634986819035    7    7    5    2
 -0.01127765135034375    7    7    5    3
 -0.01164904871940578    7    7    5    4
 0.8634951748854905    7    7    5    5
 0.006569264965892389    7    7    6    1
 0.004018210672811848    7    7    6    2
 0.197289327421191    7    7    6    3
 -0.003507349632414088    7    7    6    4
 0.04615524054334081    7    7    6    5
 0.8092738991753189    7    7    6    6
 -0.009541914646780149    7    7    7    1
 -0.01234583746439303    7    7    7    2
 0.05189977210202455    7    7    7    3
 0.03128702477298669    7    7    7    4
 -0.2089521053137415    7    7    7    5
 -0.001286261845432448    7    7    7    6
 0.8653518570061908    7    7    7    7
 -0.0007302613840998251    8    1    1    1
 -0.0005253592894146411    8    1    2    1
 -0.004992881829913779    8    1    2    2
 0.0002305173761775135    8    1    3    1
 0.0008496811461707645    8    1    3    2
 0.001333057907890619    8    1    3    3
 0.008728418510463966    8    1    4    1
 -0.0007380792807151332    8    1    4    2
 0.0005037253523545483    8    1    4    3
 -0.0009772930846436193    8    1    4    4
 -0.001097091961263713    8    1    5    1
 0.0002263186495683063    8    1    5    2
 -0.001680843106082356    8    1    5    3
 0.001063125690591096    8    1    5    4
 -0.0008816705480824531    8    1    5    5
 -0.001224656126494537    8    1    6    1
 0.001612170979896533    8    1    6    2
 0.002175581312137345    8    1    6    3
 0.001480455268960993    8    1    6    4
 -0.002011700673345033    8    1    6    5
 -0.0001357092133179611    8    1    6    6
 0.00329745190512632    8    1    7    1
 0.0002577732928638452    8    1    7    2
 0.002751320553382317    8    1    7    3
 -0.001263058410658136    8    1    7    4
 -0.001186737652040352    8    1    7    5
 0.001636105968105916    8    1    7    6
 -0.0007865568872795553    8    1    7    7
 0.01623906628830792    8    1    8    1
 0.01794633906593214    8    2    1    1
 0.001443578359017861    8    2    2    1
 0.01533758438208309    8    2    2    2
 -0.002750547971821527    8    2    3    1
 -0.0003466005559046149    8    2    3    2
 0.01061655128817652    8    2    3    3
 -0.0009336734964667369    8    2    4    1
 0.009910439133303334    8    2    4    2
 0.001882393396202334    8    2    4    3
 0.01465103726939175    8    2    4    4
 -0.0007631430709713031    8    2    5    1
 0.002195600068717123    8    2    5    2
 0.0004722324552832465    8    2    5    3
 0.000264741411988855    8    2    5    4
 0.01416992202975562    8    2    5    5
 -0.003778720179534824    8    2    6    1
 0.001374482360712775    8    2    6    2
 0.005092084960677688    8    2    6    3
 0.002576500127850902    8    2    6    4
 0.003115848958560095    8    2    6    5
 0.01150033880592445    8    2    6    6
 -0.001091704322266405    8    2    7    1
 -0.00213344258247344    8    2    7    2
 0.0009504320767600633    8    2    7    3
 0.001027107794589796    8    2    7    4
 -0.00963363258746185    8    2    7    5
 -0.0006034551079872797    8    2    7    6
 0.01321440640772043    8    2    7    7
 -0.001559200354766363    8    2    8    1
 0.0195603212799045    8    2    8    2
 -0.002798785185847938    8    3    1    1
 0.001905057675005438    8    3    2    1
 -0.00592166210707762    8    3    2    2
 -0.0007479312947409601    8    3    3    1
 0.001330476547677294    8    3    3    2
 -0.003957122866903954    8    3    3    3
 0.0005218667537314617    8    3    4    1
 0.002352493860791198    8    3    4    2
 0.007914544271355599    8    3    4    3
 -0.003532449866596757    8    3    4    4
 -0.002049300916228706    8    3    5    1
 -0.0005149802305921282    8    3    5    2
 0.00220930018490454    8    3    5    3
 0.0006253799050598374    8    3    5    4
 -0.003663460105030793    8    3    5    5
 -0.002546485248937892    8    3    6    1
 0.003328966945060568    8    3    6    2
 -0.002459150538792844    8    3    6    3
 0.013841468395051    8    3    6    4
 0.003215032529885718    8    3    6    5
 -0.003375705656896335    8    3    6    6
 0.002039221859487954    8    3    7    1
 0.001904417003787041    8    3    7    2
 -0.002203850924099481    8    3    7    3
 0.00305421178930293    8    3    7    4
 0.002173814137346077    8    3    7    5
 -0.0007052511940867128    8    3    7    6
 -0.004542316411798237    8    3    7    7
 0.0005052058260383615    8    3    8    1
 0.002667162649169959    8    3    8    2
 0.01532026923394577    8    3    8    3
 0.2174394967765598    8    4    1    1
 0.001648348804727461    8    4    2    1
 0.2145889529876765    8    4    2    2
 -0.001375339746824053    8    4    3    1
 -0.004084920028679264    8    4    3    2
 0.2121890943403116    8    4    3    3
 0.0007351564462853002    8    4    4    1
 0.0002741431191028165    8    4    4    2
 0.0002515401814362156    8    4    4    3
 0.2329624745801566    8    4    4    4
 -0.001650580075154126    8    4    5    1
 -0.001035572769645765    8    4    5    2
 0.0003911001814085989    8    4    5    3
 0.0008376643900025306    8    4    5    4
 0.2082831390923553    8    4    5    5
 0.003740222786941173    8    4    6    1
 -0.005208190497801643    8    4    6    2
 0.1502114259170094    8    4    6    3
 -0.002616130533909801    8    4    6    4
 0.03326905388035765    8    4    6    5
 0.2058042190946375    8    4    6    6
 -0.00540733184179523    8    4    7    1
 -0.009249999807765774    8    4    7    2
 0.03619074839242203    8    4    7    3
 0.02418607442909089    8    4    7    4
 -0.1381889976338583    8    4    7    5
 0.0009351931941563934    8    4    7    6
 0.1987364978434831    8    4    7    7
 -0.0008808172534772172    8    4    8    1
 0.01083567820294271    8    4    8    2
 -0.003236911199484561    8    4    8    3
 0.1842912806222465    8    4    8    4
 0.03571215080491042    8    5    1    1
 0.0004107619558126773    8    5    2    1
 0.02851993951350223    8    5    2    2
 0.003141168781241505    8    5    3    1
 -0.0004664828678909783    8    5    3    2
 0.02824011182142931    8    5    3    3
 0.001256772284980774    8    5    4    1
 0.0003505088758006874    8    5    4    2
 0.0004287917907550467    8    5    4    3
 0.0302167330220103    8    5    4    4
 -0.001038311324479633    8    5    5    1
 0.0003371271271620335    8    5    5    2
 -0.001062434332281775    8    5    5    3
 0.01207301949710481    8    5    5    4
 0.03277974630298876    8    5    5    5
 0.005711897883897927    8    5    6    1
 2.893154298490052e-05    8    5    6    2
 0.01793986253528502    8    5    6    3
 0.004209611766859596    8    5    6    4
 0.004860259910508122    8    5    6    5
 0.02785179124920476    8    5    6    6
 0.0007099073061965814    8    5    7    1
 -0.002137107946559481    8    5    7    2
 0.004931496022520308    8    5    7    3
 -0.01640651130530049    8    5    7    4
 -0.02258559580734468    8    5    7    5
 0.000106589692060087    8    5    7    6
 0.02825914382664037    8    5    7    7
 0.0008325936857507338    8    5    8    1
 0.001692166883439401    8    5    8    2
 -0.0005104085033557357    8    5    8    3
 0.02304294875737536    8    5    8    4
 0.02358509418591225    8    5    8    5
 0.004531591755117266    8    6    1    1
 0.005398887434800451    8    6    2    1
 -0.004515640477015793    8    6    2    2
 -0.001366443675848918    8    6    3    1
 0.006457823310458686    8    6    3    2
 -0.001803755115195506    8    6    3    3
 0.002742205311631373    8    6    4    1
 0.006878030808040578    8    6    4    2
 0.02000988693953036    8    6    4    3
 -0.002238169806310489    8    6    4    4
 -0.005739599205108844    8    6    5    1
 -0.0005991543082693112    8    6    5    2
 0.005613944664630247    8    6    5    3
 0.006716329016776303    8    6    5    4
 0.005191585941113032    8    6    5    5
 -0.0005570052195974976    8    6    6    1
 0.001504651424444774    8    6    6    2
 -0.0001344413512577727    8    6    6    3
 0.005282831436506504    8    6    6    4
 0.001642179028768546    8    6    6    5
 0.0002822664595741267    8    6    6    6
 0.001539821247400717    8    6    7    1
 0.0008454892919298167    8    6    7    2
 -0.0005932527269831261    8    6    7    3
 -0.0008965933184705083    8    6    7    4
 -0.0004995459166173646    8    6    7    5
 -0.003654147060043703    8    6    7    6
 0.0007606550280008131    8    6    7    7
 0.0005990183814421167    8    6    8    1
 0.001668218204572471    8    6    8    2
 0.005300406800397495    8    6    8    3
 -7.877736529083557e-05    8    6    8    4
 0.001958261990042759    8    6    8    5
 0.02527924346641608    8    6    8    6
 -0.0135385706300884    8    7    1    1
 0.0006822993127164588    8    7    2    1
 0.005475230881218496    8    7    2    2
 -0.01040722294910269    8    7    3    1
 0.0002089832237054277    8    7    3    2
 0.006764766713884725    8    7    3    3
 -0.003020673499067008    8    7    4    1
 -0.00055822272056194    8    7    4    2
 0.004512466275627089    8    7    4    3
 0.009356585596542514    8    7    4    4
 -2.778555038215715e-05    8    7    5    1
 -0.002510091431587915    8    7    5    2
 0.003427531610346167    8    7    5    3
 -0.03094912955969525    8    7    5    4
 -0.008660933808952703    8    7    5    5
 -0.002345581241078753    8    7    6    1
 2.5844670798652e-05    8    7    6    2
 0.002014254310571989    8    7    6    3
 -0.0009120060497936604    8    7    6    4
 0.0005645971567670326    8    7    6    5
 0.006526562207482317    8    7    6    6
 -0.001132552296343124    8    7    7    1
 0.0001854791518806705    8    7    7    2
 -0.001165781846947366    8    7    7    3
 0.008108916658541755    8    7    7    4
 0.001026410533893825    8    7    7    5
 0.0001657399989143064    8    7    7    6
 -0.000294493217888805    8    7    7    7
 -0.001096271318186123    8    7    8    1
 -0.0003402276308920476    8    7    8    2
 0.0005339793322601824    8    7    8    3
 0.001084597928893727    8    7    8    4
 -0.008355861719194625    8    7    8    5
 -0.002628223904064809    8    7    8    6
 0.03515018847952146    8    7    8    7
 0.8399425230312479    8    8    1    1
 0.005760701066934882    8    8    2    1
 0.826905742363829    8    8    2    2
 -0.0023352781664636    8    8    3    1
 -0.01253797318294229    8    8    3    2
 0.8165253212737024    8    8    3    3
 0.001740892656101942    8    8    4    1
 0.001769626112117536    8    8    4    2
 -0.0002475157405490581    8    8    4    3
 0.8746738915432845    8    8    4    4
 -0.00630594606669718    8    8    5    1
 -0.003128503100116717    8    8    5    2
 0.001262938659062617    8    8    5    3
 0.007076763567619277    8    8    5    4
 0.8039749372790721    8    8    5    5
 0.006618981330253574    8    8    6    1
 -0.001756107982024887    8    8    6    2
 0.2000086136740435    8    8    6    3
 -0.002989487657006664    8    8    6    4
 0.04577194061214942    8    8    6    5
 0.8175225530188917    8    8    6    6
 -0.009132561228424924    8    8    7    1
 -0.01254664867754337    8    8    7    2
 0.04797300108339761    8    8    7    3
 0.02911710007246087    8    8    7    4
 -0.1936359273377039    8    8    7    5
 0.004911732782550139    8    8    7    6
 0.7951734081300221    8    8    7    7
 -0.0007121475353504311    8    8    8    1
 0.01478777327227538    8    8    8    2
 -0.00291258218866456    8    8    8    3
 0.214838316285933    8    8    8    4
 0.03128592609374171    8    8    8    5
 -1.935360829778586e-05    8    8    8    6
 -0.0001949698592176614    8    8    8    7
 0.86702544544311    8    8    8    8
 0.2353595115654615    9    1    1    1
 -0.001421396416684804    9    1    2    1
 0.2152868266826541    9    1    2    2
 -0.00153359849235532    9    1    3    1
 -0.0007924783102170776    9    1    3    2
 0.2062962256156518    9    1    3    3
 0.001558540814038908    9    1    4    1
 0.002363948514961728    9    1    4    2
 0.001082236108096795    9    1    4    3
 0.2149571412507807    9    1    4    4
 -0.001535312497639768    9    1    5    1
 0.001861075163742329    9    1    5    2
 -0.002818199632254794    9    1    5    3
 0.003251742585623598    9    1    5    4
 0.2141671547229909    9    1    5    5
 0.006213349696997301    9    1    6    1
 0.0007185138402675569    9    1    6    2
 0.1427846862542641    9    1    6    3
 -0.0003891745299001527    9    1    6    4
 0.03299108554989025    9    1    6    5
 0.200326362888869    9    1    6    6
 -0.007910569733959106    9    1    7    1
 -0.0121150618637809    9    1    7    2
 0.03728514809143004    9    1    7    3
 0.01660054589716806    9    1    7    4
 -0.1493206780969552    9    1    7    5
 0.0005932910743461888    9    1    7    6
 0.2030875796459052    9    1    7    7
 -0.0005326629037687966    9    1    8    1
 0.01434926512269103    9    1    8    2
 -0.002204733111203342    9    1    8    3
 0.1535414291392416    9    1    8    4
 0.02814515243628415    9    1    8    5
 0.001398376744500607    9    1    8    6
 -0.003317429282807487    9    1    8    7
 0.2035213397782806    9    1    8    8
 0.1894537519537713    9    1    9    1
 -0.02552011643030812    9    2    1    1
 0.009284767125006525    9    2    2    1
 -0.02808975564222164    9    2    2    2
 0.000197915117063284    9    2    3    1
 -0.0005564959776625134    9    2    3    2
 -0.02433229850340193    9    2    3    3