[Molden Format]
made by pyscf v[2.0.1]
[Atoms] (AU)
He   1   2     0.00000000000000     0.00000000000000     0.00000000000000
He   2   2     5.34495263898958     0.00000000000000     0.00000000000000
He   3   2     0.00000000000000     5.34495263898958     0.00000000000000
He   4   2     5.34495262009232     5.34495262009232     0.00000000000000
He   5   2     2.67247631004616     2.67247631004616     3.77945224913012
He   6   2     2.67247631004616     2.67247631004616    -3.77945224913012
He   7   2     2.67247631004616     2.67247631004616     0.00000000000000
[GTO]
1 0
 s    3 1.00
                 38.36   0.040176075383249
                  5.77    0.26136807476949
                  1.24    0.79307123949544
 s    1 1.00
                0.2976                   1
 p    1 1.00
                 1.275                   1

2 0
 s    3 1.00
                 38.36   0.040176075383249
                  5.77    0.26136807476949
                  1.24    0.79307123949544
 s    1 1.00
                0.2976                   1
 p    1 1.00
                 1.275                   1

3 0
 s    3 1.00
                 38.36   0.040176075383249
                  5.77    0.26136807476949
                  1.24    0.79307123949544
 s    1 1.00
                0.2976                   1
 p    1 1.00
                 1.275                   1

4 0
 s    3 1.00
                 38.36   0.040176075383249
                  5.77    0.26136807476949
                  1.24    0.79307123949544
 s    1 1.00
                0.2976                   1
 p    1 1.00
                 1.275                   1

5 0
 s    3 1.00
                 38.36   0.040176075383249
                  5.77    0.26136807476949
                  1.24    0.79307123949544
 s    1 1.00
                0.2976                   1
 p    1 1.00
                 1.275                   1

6 0
 s    3 1.00
                 38.36   0.040176075383249
                  5.77    0.26136807476949
                  1.24    0.79307123949544
 s    1 1.00
                0.2976                   1
 p    1 1.00
                 1.275                   1

7 0
 s    3 1.00
                 38.36   0.040176075383249
                  5.77    0.26136807476949
                  1.24    0.79307123949544
 s    1 1.00
                0.2976                   1
 p    1 1.00
                 1.275                   1

[5d]
[7f]
[9g]

[MO]
 Sym= A
 Ene=               0
 Spin= Alpha
 Occup=    1.00000
   1       1.2209496603197
   2     -0.44309660463905
   3    -0.0010877124305553
   4    -0.0010877124304881
   5    2.6661835222788e-14
   6    -0.0016539631971945
   7    0.0024377829279396
   8    9.5794230849026e-05
   9    -0.00046654387930553
  10    3.8329157260468e-15
  11    -0.0016539631951823
  12    0.0024377829232224
  13    -0.00046654387841354
  14    9.5794230302204e-05
  15    -1.6449996800265e-14
  16    0.0033744450881571
  17    -0.0087505032600265
  18    0.00044982102883686
  19    0.00044982102881897
  20    -1.9990145287365e-14
  21    -0.0016539879551062
  22    0.0024377877160557
  23    -0.00018537500463185
  24    -0.00018537500481064
  25    0.00039763452947075
  26    -0.0016539879544168
  27     0.002437787719215
  28    -0.00018537500468203
  29    -0.00018537500466887
  30    -0.00039763452888064
  31    -0.022655986948402
  32     0.061859113396536
  33    -0.0056066706545465
  34    -0.0056066706523328
  35    -6.5449780025502e-14
 Sym= A
 Ene=               1
 Spin= Alpha
 Occup=    1.00000
   1     -0.44046245051864
   2       1.2288615975683
   3    0.0018630515455788
   4    0.0018630515456346
   5    2.6221445372728e-14
   6    -0.00091160287970814
   7    -0.0018136611930153
   8    -0.00059413629754632
   9    0.00032061405729995
  10    4.6337873562847e-15
  11    -0.00091160287511452
  12    -0.0018136611948278
  13    0.0003206140581501
  14    -0.00059413629806413
  15    -1.4904329403329e-14
  16    -0.0023219059927378
  17    0.0094814410993698
  18    -0.00029837420027896
  19    -0.00029837420028674
  20    -1.8092050719568e-14
  21    -0.00091160195745047
  22    -0.0018136390162558
  23    -0.0001367612726282
  24    -0.00013676127279199
  25    -0.00064682469114068
  26    -0.00091160196106178
  27    -0.0018136390168699
  28    -0.00013676127267586
  29    -0.00013676127266327
  30    0.00064682469164688
  31     0.008764398578051
  32    -0.086874153694127
  33    0.0041235628436692
  34    0.0041235628456868
  35    -7.7187908107845e-14
 Sym= A
 Ene=               2
 Spin= Alpha
 Occup=    1.00000
   1    -0.0012678221776083
   2    0.0035201804950469
   3       1.0005604714983
   4    0.00055841657975071
   5    6.3789805989659e-17
   6    -0.0012571861009458
   7    0.0027161907691194
   8    -0.00055854274269305
   9    0.00055202275457252
  10    4.5628763838024e-16
  11    -0.0026312155114384
  12    0.0055779324185568
  13    0.00055897375559405
  14    -0.00056571803179343
  15    -2.3008853867761e-16
  16    -0.002653188652994
  17    0.0055917869031321
  18    -0.00055827377835324
  19    -0.00056032869644958
  20    -2.5449383793284e-16
  21    -0.0019442042420615
  22     0.004147058260306
  23    -2.291682855377e-06
  24    -4.3404438995976e-06
  25    -0.00079028276321899
  26    -0.0019442042396296
  27    0.0041470582623596
  28    -2.2916828555336e-06
  29    -4.3404438992844e-06
  30    0.00079028276321516
  31     0.018912010441743
  32    -0.037831721690933
  33    0.00058215034986197
  34     0.000591054846143
  35    1.1997304481735e-14
 Sym= A
 Ene=               3
 Spin= Alpha
 Occup=    1.00000
   1    -0.0012678221776623
   2    0.0035201804950182
   3    0.00055841657975319
   4       1.0005604714983
   5    -1.7869561531268e-16
   6    -0.0026312155092927
   7    0.0055779324203332
   8    -0.00056571803179351
   9    0.00055897375559278
  10    -4.0699046585577e-16
  11    -0.0012571861031276
  12    0.0027161907673437
  13    0.00055202275457341
  14    -0.00055854274268999
  15    -9.6186670594133e-17
  16    -0.0026531886528566
  17    0.0055917869032684
  18    -0.00056032869645134
  19    -0.00055827377834992
  20    -1.8985296638638e-17
  21    -0.0019442042419375
  22    0.0041470582604319
  23    -4.340443900125e-06
  24    -2.2916828554656e-06
  25    -0.0007902827632188
  26    -0.0019442042395067
  27    0.0041470582624838
  28    -4.340443899785e-06
  29    -2.2916828560864e-06
  30    0.00079028276321429
  31     0.018912010441392
  32    -0.037831721691241
  33    0.00059105484613147
  34    0.00058215034987084
  35    1.2405492577342e-14
 Sym= A
 Ene=               4
 Spin= Alpha
 Occup=    1.00000
   1    -2.3800728440322e-14
   2    -1.8811236577371e-14
   3    -1.022126158455e-15
   4    -1.2624616822595e-15
   5       1.0000020549184
   6    9.3204141365218e-15
   7    1.3159805211302e-14
   8    1.6197820994843e-15
   9    -1.0484275932096e-15
  10    2.0487612188373e-06
  11    2.2307129278777e-15
  12    6.3411368636428e-15
  13    -4.6233947083529e-16
  14    1.3075038176018e-15
  15    2.0487612191265e-06
  16    -1.3923913124662e-14
  17    -8.3886803982495e-15
  18    1.1830933523952e-15
  19    1.4197818378945e-15
  20    2.0549183189855e-06
  21    0.00097158527749286
  22    -0.0020235572599528
  23    7.9297971074476e-08
  24    7.9297970942045e-08
  25    7.0631406103577e-06
  26    -0.00097158527735076
  27    0.0020235572600756
  28    -7.9297971181921e-08
  29    -7.9297972184465e-08
  30    7.0631406062677e-06
  31    1.6451709062631e-14
  32    1.5168346228754e-14
  33    1.4078483360098e-16
  34    -1.041029098823e-16
  35    -8.9044970922252e-06
 Sym= A
 Ene=               5
 Spin= Alpha
 Occup=    1.00000
   1    -0.0016540952353172
   2    0.0024378326618332
   3    -9.5808469079327e-05
   4    -0.00046655818128243
   5    -1.6314421117271e-14
   6       1.2209496636434
   7     -0.44309661396894
   8    0.0010877140737347
   9    -0.0010877135244945
  10    2.6312124736314e-14
  11    0.0033744211701158
  12    -0.008750386046757
  13    -0.00044984202867763
  14    0.00044984191240959
  15    -1.6478230753536e-14
  16    -0.0016540352950841
  17    0.0024378446838432
  18    0.00046655778315751
  19    9.5807425008622e-05
  20    7.1150819015796e-16
  21    -0.0016540647056155
  22    0.0024378704177059
  23    0.00018537495219694
  24    -0.00018537511828998
  25    0.00039765155303313
  26    -0.0016540647019815
  27     0.002437870421705
  28    0.00018537495216833
  29    -0.00018537511835045
  30    -0.00039765155246095
  31    -0.022656147529717
  32     0.061859160272806
  33    0.0056066575498653
  34    -0.0056066605682761
  35    7.9474548600019e-14
 Sym= A
 Ene=               6
 Spin= Alpha
 Occup=    1.00000
   1    -0.00091163431091771
   2    -0.0018135495740483
   3    0.00059412248391787
   4    0.00032060020618825
   5    -1.3501503755965e-14
   6      -0.4404624496035
   7       1.2288615862942
   8    -0.0018630496922965
   9    0.0018630501877329
  10    2.5358445764378e-14
  11    -0.0023220328511588
  12    0.0094814560777377
  13    0.00029835462420587
  14    -0.0002983547330105
  15    -1.4516514247333e-14
  16    -0.00091165875777792
  17    -0.0018136021677528
  18    -0.00032060054427013
  19    -0.00059412343981459
  20    1.1532863622815e-15
  21    -0.00091168120964093
  22    -0.0018135749148956
  23    0.00013676124507242
  24    -0.0001367613923179
  25    -0.00064680834604527
  26    -0.00091168121463859
  27    -0.0018135749181277
  28    0.00013676124504766
  29    -0.00013676139237688
  30    0.00064680834653622
  31    0.0087643540462165
  32    -0.086874019737687
  33    -0.0041235749211453
  34    0.0041235725058497
  35    3.4810538478736e-14
 Sym= A
 Ene=               7
 Spin= Alpha
 Occup=    0.00000
   1    0.0012571968070216
   2    -0.0027161800276417
   3    -0.00055854267239403
   4    -0.00055202268627777
   5    4.7428620286123e-16
   6    0.0012678217632846
   7    -0.0035201814131406
   8       1.0005604714896
   9    -0.00055841656976298
  10    1.5088188800118e-15
  11    0.0026531821729505
  12    -0.0055917920311611
  13    -0.00055827378917913
  14    0.00056032870814988
  15    -1.4114549709779e-15
  16    0.0026312203099352
  17    -0.0055779275110468
  18    0.00055897367144178
  19    0.00056571794581574
  20    -3.3678846559779e-16
  21    0.0019442060378889
  22    -0.0041470561579009
  23    -2.2916871709194e-06
  24     4.34044335844e-06
  25    0.00079028270878912
  26    0.0019442060353926
  27    -0.0041470561600091
  28    -2.2916871721284e-06
  29    4.3404433608713e-06
  30    -0.00079028270878517
  31    -0.018912018424245
  32     0.037831713532147
  33    0.00058215034795226
  34    -0.00059105476980999
  35    -9.3986600023745e-15
 Sym= A
 Ene=               8
 Spin= Alpha
 Occup=    0.00000
   1    -0.0026312263275818
   2    0.0055779216780299
   3    0.00056571795193411
   4    0.00055897367446334
   5    1.0548185581097e-16
   6    -0.0012678221479606
   7     0.003520180943577
   8    -0.00055841656944714
   9       1.0005604714862
  10    9.8128224664689e-16
  11    -0.0026531820126213
  12    0.0055917920107088
  13    0.0005603287053959
  14    -0.00055827378793277
  15    -1.7232829062366e-15
  16    -0.0012571918002275
  17     0.002716184736788
  18    -0.00055202267860527
  19    -0.0005585426635629
  20    -6.9853188284403e-16
  21    -0.0019442055426429
  22     0.004147056497606
  23    4.3404476160667e-06
  24    -2.2916825794269e-06
  25    -0.00079028270550361
  26    -0.0019442055401168
  27    0.0041470564997428
  28    4.3404476144692e-06
  29    -2.2916825771789e-06
  30    0.00079028270550404
  31     0.018912018724333
  32    -0.037831712862685
  33    -0.00059105484409489
  34    0.00058215026208122
  35    1.053363711847e-14
 Sym= A
 Ene=               9
 Spin= Alpha
 Occup=    0.00000
   1    -4.8598604557433e-15
   2    -3.3183333410285e-15
   3    -9.3471298309529e-16
   4    -1.8352335896919e-15
   5    2.0487602227559e-06
   6    -2.4929914252874e-14
   7    -1.705999778148e-14
   8    2.9235571291152e-15
   9    -4.3187785402492e-16
  10       1.0000020549183
  11    1.2601516314472e-14
  12    1.4086993793134e-14
  13    3.254176196125e-16
  14    2.433977093918e-15
  15    2.0549182314928e-06
  16    -2.8976995880061e-14
  17    -2.1987163068191e-14
  18    1.4803135648621e-15
  19    1.0532395239179e-15
  20    2.0487609678943e-06
  21    0.00097158526501678
  22    -0.0020235572483645
  23    -7.929867929372e-08
  24    7.9298419351592e-08
  25    7.0631394706751e-06
  26    -0.000971585265064
  27     0.002023557248324
  28    7.9298676749933e-08
  29    -7.9298422247533e-08
  30    7.0631394663891e-06
  31    3.1061679781381e-14
  32    3.7547693010426e-14
  33    3.3432344915194e-16
  34    -2.0314275442813e-16
  35    -8.9044975539411e-06
 Sym= A
 Ene=              10
 Spin= Alpha
 Occup=    0.00000
   1    -0.001654095234293
   2     0.002437832658551
   3    -0.0004665581785992
   4    -9.580846634776e-05
   5    -6.8720289583987e-15
   6    0.0033744211661926
   7    -0.0087503860442178
   8    0.00044984190426921
   9    -0.00044984202077517
  10    -1.9295847469772e-14
  11       1.2209496636431
  12     -0.44309661396778
  13    -0.0010877135243414
  14    0.0010877140735796
  15    2.6748168356335e-14
  16    -0.001654035291828
  17     0.002437844680525
  18    9.5807420802551e-05
  19    0.00046655777933502
  20    -2.0644164964554e-15
  21    -0.0016540647016977
  22    0.0024378704136578
  23    -0.00018537511833694
  24    0.00018537495233369
  25    0.00039765154817813
  26    -0.0016540646988908
  27    0.0024378704179844
  28    -0.00018537511840699
  29    0.00018537495225421
  30    -0.00039765154763312
  31    -0.022656147523394
  32      0.06185916026073
  33    -0.0056066605656653
  34    0.0056066575499009
  35    -2.8695416505133e-13
 Sym= A
 Ene=              11
 Spin= Alpha
 Occup=    0.00000
   1    -0.00091163430685301
   2    -0.0018135495746543
   3    0.00032060020864845
   4    0.00059412248640694
   5    -5.1645278366455e-15
   6    -0.0023220328523578
   7    0.0094814560816066
   8    -0.00029835474050158
   9    0.0002983546314624
  10    -1.6614445244912e-14
  11     -0.44046244960381
  12       1.2288615862952
  13    0.0018630501878566
  14    -0.0018630496924057
  15    2.5688255770585e-14
  16    -0.00091165875410851
  17    -0.0018136021704282
  18    -0.00059412344367779
  19    -0.0003206005477614
  20    -1.3768563257386e-15
  21    -0.00091168120528108
  22    -0.001813574918167
  23    -0.00013676139236216
  24    0.00013676124519937
  25    -0.00064680835048897
  26    -0.00091168121049571
  27    -0.0018135749206531
  28    -0.00013676139242871
  29    0.00013676124512674
  30    0.00064680835095604
  31    0.0087643540578834
  32    -0.086874019744131
  33    0.0041235725082721
  34    -0.0041235749211167
  35    -2.9971017158779e-13
 Sym= A
 Ene=              12
 Spin= Alpha
 Occup=    0.00000
   1    -0.0026312263283347
   2    0.0055779216773863
   3    0.00055897367446397
   4    0.00056571795193149
   5    6.4491353247956e-16
   6    -0.0026531820062336
   7    0.0055917920160594
   8    -0.00055827378792427
   9    0.00056032870538658
  10    1.7592496090014e-15
  11    -0.0012678221480362
  12    0.0035201809435577
  13       1.0005604714862
  14    -0.00055841656944379
  15    -1.4735522754006e-15
  16    -0.0012571918004172
  17    0.0027161847366252
  18    -0.0005585426635614
  19    -0.00055202267860039
  20    -6.4485230314554e-16
  21    -0.0019442055422845
  22    0.0041470564979094
  23    -2.2916825781315e-06
  24    4.3404476128607e-06
  25    -0.00079028270550441
  26    -0.0019442055398475
  27    0.0041470564999704
  28    -2.2916825796393e-06
  29    4.3404476154911e-06
  30    0.00079028270549785
  31     0.018912018724774
  32    -0.037831712862566
  33    0.00058215026205724
  34    -0.00059105484407845
  35    1.4737076700958e-14
 Sym= A
 Ene=              13
 Spin= Alpha
 Occup=    0.00000
   1    0.0012571968074913
   2    -0.002716180027268
   3    -0.00055202268628166
   4    -0.00055854267239172
   5    1.9114958242021e-16
   6    0.0026531821663633
   7    -0.0055917920367065
   8    0.00056032870814631
   9    -0.00055827378917519
  10    9.7717592994837e-16
  11    0.0012678217633621
  12    -0.003520181413156
  13    -0.00055841656976548
  14       1.0005604714895
  15    -9.0363838742199e-16
  16    0.0026312203104943
  17    -0.005577927510596
  18    0.00056571794581856
  19    0.00055897367143892
  20    -3.849651855745e-16
  21    0.0019442060374848
  22    -0.0041470561582705
  23    4.3404433616446e-06
  24    -2.29168717077e-06
  25    0.00079028270879297
  26    0.0019442060350226
  27    -0.0041470561603499
  28    4.3404433605641e-06
  29    -2.2916871680421e-06
  30    -0.00079028270878247
  31    -0.018912018424088
  32     0.037831713532558
  33    -0.00059105476978521
  34    0.00058215034793047
  35    -1.3782920372868e-14
 Sym= A
 Ene=              14
 Spin= Alpha
 Occup=    0.00000
   1    1.1798782760511e-14
   2    1.2778208762518e-14
   3    -1.2048640420218e-15
   4    -1.0808271213046e-15
   5    2.0487602229781e-06
   6    9.9240868165441e-15
   7    1.4131964178413e-14
   8    -3.9888225043889e-16
   9    -2.7523447875136e-15
  10    2.0549182314151e-06
  11    -2.4889896924206e-14
  12    -1.6144936637946e-14
  13    -2.415984670039e-15
  14    4.4897934353167e-17
  15       1.0000020549183
  16    1.4119971373491e-14
  17    1.6465967118322e-14
  18    8.2392498152588e-16
  19    1.4988376554263e-15
  20    2.0487609686614e-06
  21    0.00097158526508503
  22    -0.0020235572483028
  23    7.929842156662e-08
  24    -7.9298676259056e-08
  25    7.0631394705473e-06
  26    -0.00097158526507765
  27    0.0020235572483126
  28    -7.9298419104971e-08
  29    7.9298679279615e-08
  30    7.0631394668347e-06
  31    -6.1564033358334e-15
  32    9.8422191143266e-17
  33    -6.65392046127e-17
  34    1.2052034714123e-16
  35    -8.9044975545614e-06
 Sym= A
 Ene=              15
 Spin= Alpha
 Occup=    0.00000
   1    0.0033744884443753
   2    -0.0087505215449236
   3    -0.00044983353729777
   4    -0.00044983353746725
   5    1.3440859859705e-14
   6    -0.0016540540192947
   7     0.002437859019043
   8    0.00046655164396212
   9    -9.5800655931701e-05
  10    3.2192538216763e-14
  11    -0.0016540540203448
  12    0.0024378590166963
  13    -9.5800655729237e-05
  14    0.00046655164330107
  15    -2.0596328679921e-14
  16       1.2209496620794
  17     -0.44309660727183
  18    0.0010877128982746
  19      0.00108771289833
  20    2.4245998661332e-14
  21    -0.0016540304880936
  22    0.0024377839655923
  23    0.00018537527408174
  24    0.00018537527417171
  25    0.00039764436212634
  26    -0.0016540304832725
  27    0.0024377839665789
  28    0.00018537527403029
  29    0.0001853752741259
  30    -0.00039764436141129
  31    -0.022656049351145
  32     0.061859096253581
  33    0.0056066702285975
  34    0.0056066702288375
  35    2.6666417729081e-13
 Sym= A
 Ene=              16
 Spin= Alpha
 Occup=    0.00000
   1    -0.0023218919184967
   2    0.0094813958387317
   3    0.00029836248261716
   4    0.00029836248245385
   5    1.3589267245146e-14
   6    -0.00091166643583699
   7    -0.001813579539831
   8    -0.00032060667003226
   9    0.00059413014170343
  10    3.0801633632602e-14
  11    -0.00091166643320501
  12    -0.0018135795387734
  13    0.00059413014191791
  14    -0.00032060667065704
  15    -1.8634183269905e-14
  16     -0.44046245095496
  17       1.2288615937385
  18    -0.0018630508741839
  19    -0.0018630508741236
  20    2.3693602060993e-14
  21    -0.00091159060804844
  22    -0.0018136038451888
  23    0.00013676152672453
  24    0.00013676152680793
  25    -0.00064681527758812
  26    -0.00091159061005563
  27    -0.0018136038495946
  28    0.00013676152667852
  29    0.00013676152676694
  30    0.00064681527821075
  31    0.0087644207867354
  32    -0.086874107186919
  33    -0.0041235634872295
  34    -0.004123563487033
  35    2.1660746310785e-13
 Sym= A
 Ene=              17
 Spin= Alpha
 Occup=    0.00000
   1    0.0026531984305041
   2    -0.0055917780118823
   3    -0.00055827379559852
   4    -0.00056032871431759
   5    5.2012174416467e-17
   6    0.0026312157546484
   7    -0.0055779321009252
   8    0.00055897376222878
   9    -0.00056571803609203
  10    6.9489838485087e-17
  11    0.0012571867819657
  12    -0.0027161898423902
  13    -0.0005585427471118
  14    0.00055202276414172
  15    -1.802748804674e-16
  16    0.0012678221877428
  17    -0.0035201812087809
  18       1.0005604714967
  19    0.00055841657834055
  20    1.422449281884e-17
  21    0.0019442045300711
  22    -0.0041470580097806
  23    -2.2916869656912e-06
  24    -4.3404476703871e-06
  25    0.00079028277187892
  26     0.001944204527573
  27    -0.0041470580118965
  28    -2.291686965695e-06
  29    -4.3404476694128e-06
  30    -0.00079028277187417
  31    -0.018912009317461
  32      0.03783172214266
  33    0.00058215042910382
  34    0.00059105491983066
  35    -1.2268980807767e-14
 Sym= A
 Ene=              18
 Spin= Alpha
 Occup=    0.00000
   1    0.0026531984305164
   2    -0.0055917780118907
   3    -0.00056032871432327
   4    -0.00055827379559971
   5    2.9555155278068e-16
   6    0.0012571867785809
   7    -0.0027161898452266
   8    0.00055202276414733
   9    -0.0005585427471134
  10    -3.388619925825e-16
  11     0.002631215757719
  12    -0.0055779320984014
  13    -0.0005657180360997
  14    0.00055897376223069
  15    4.6433297185254e-16
  16    0.0012678221876947
  17    -0.0035201812088398
  18    0.00055841657834706
  19       1.0005604714967
  20    3.3852709810569e-16
  21    0.0019442045298693
  22    -0.0041470580099689
  23    -4.3404476698182e-06
  24    -2.2916869648851e-06
  25    0.00079028277188378
  26    0.0019442045273355
  27    -0.0041470580121152
  28    -4.3404476691045e-06
  29    -2.291686964852e-06
  30    -0.00079028277187988
  31     -0.01891200931704
  32     0.037831722143069
  33    0.00059105491984984
  34    0.00058215042908297
  35    -1.2028227692464e-14
 Sym= A
 Ene=              19
 Spin= Alpha
 Occup=    0.00000
   1    1.4615496310874e-14
   2    1.5165083202168e-14
   3    -1.236476158251e-15
   4    -1.0173677787529e-15
   5    2.0549184687284e-06
   6    -3.9404101360362e-15
   7    2.5105637076125e-15
   8    6.5230146821894e-16
   9    -1.6825572286303e-15
  10    2.048760568858e-06
  11    -1.4856926977361e-15
  12    4.2564644664619e-15
  13    -1.600367561176e-15
  14    5.960988591321e-16
  15    2.0487605696586e-06
  16    -2.196049639554e-14
  17    -1.5701963680977e-14
  18    1.0008081637502e-15
  19    1.3129830590745e-15
  20       1.0000020549185
  21    0.00097158537333793
  22    -0.0020235571903362
  23    -7.9298819408724e-08
  24    -7.929881944586e-08
  25    7.0631396560446e-06
  26    -0.00097158537331699
  27    0.0020235571903564
  28    7.9298820504252e-08
  29    7.9298820176492e-08
  30    7.0631396521473e-06
  31    -7.6037943085821e-15
  32    -5.442066340853e-16
  33    2.3410898258661e-16
  34    5.2423594596503e-17
  35    -8.9044997077393e-06
 Sym= A
 Ene=              20
 Spin= Alpha
 Occup=    0.00000
   1    -0.0016540667086356
   2    0.0024378175785098
   3    -0.0002811786375952
   4    -0.00028117863774797
   5    0.00026215999821052
   6    -0.0016540349495018
   7    0.0024378611217883
   8    0.00028117637547269
   9    -0.00028117694828979
  10    0.00026215999406926
  11    -0.0016540349508305
  12    0.0024378611190538
  13    -0.000281176948756
  14    0.00028117637599023
  15    0.00026215999398522
  16    -0.0016540055331729
  17    0.0024377709088556
  18    0.00028117828925152
  19    0.0002811782894938
  20    0.0002621598843317
  21       1.2209496623596
  22     -0.44309660976021
  23    2.8087197888348e-10
  24    2.8093258611924e-10
  25     0.001538258763771
  26    0.0033744451210529
  27    -0.0087504524137133
  28    -1.3575290656703e-10
  29    -1.3581850129927e-10
  30    -0.00063616169444177
  31    -0.022656079560168
  32     0.061859131161136
  33    -3.3061694230372e-09
  34    -3.3060884630181e-09
  35    0.0079290217375976
 Sym= A
 Ene=              21
 Spin= Alpha
 Occup=    0.00000
   1    -0.00091162054406034
   2    -0.0018135726290888
   3    0.0004573658565609
   4    0.00045736585641214
   5    0.00019340978467096
   6    -0.0009116749725616
   7    -0.0018135982824042
   8    -0.00045736815316313
   9    0.00045736762586113
  10    0.00019340981169701
  11    -0.00091167496946356
  12    -0.0018135982810879
  13    0.00045736762545471
  14    -0.00045736815269482
  15    0.00019340981161696
  16    -0.00091158329922858
  17    -0.0018136279799526
  18    -0.00045736613417189
  19    -0.00045736613393839
  20    0.00019340968714699
  21     -0.44046245019863
  22       1.2288615912105
  23    2.6851056794255e-10
  24    2.6856814888628e-10
  25    -0.0026347514360042
  26    -0.0023219625244542
  27    0.0094814363222202
  28    -1.174664050766e-10
  29    -1.1752683969399e-10
  30    0.00042194739261813
  31    0.0087643832530742
  32    -0.086874077895793
  33    -3.0399581954042e-09
  34    -3.0399239107154e-09
  35    -0.0058316060367029
 Sym= A
 Ene=              22
 Spin= Alpha
 Occup=    0.00000
   1    -0.00068701464918277
   2    0.0014308709991072
   3    4.5559489954374e-06
   4    2.5071883334618e-06
   5    7.9298786523664e-08
   6    0.00068701466885016
   7    -0.0014308709676854
   8    4.5559516866475e-06
   9    -2.507190952399e-06
  10    -7.9298439517433e-08
  11    -0.00068701448288315
  12    0.0014308710013048
  13    4.5559530669329e-06
  14    -2.5071922585704e-06
  15    7.9298328114402e-08
  16    0.00068701441106382
  17    -0.0014308711957342
  18    4.5559477895719e-06
  19    2.5071869862479e-06
  20    -7.9298305149767e-08
  21    -2.2316068534392e-10
  22    -2.171827069361e-10
  23       1.0000020549184
  24    -1.5545770902406e-14
  25    -1.0759261316791e-12
  26    1.1487490194963e-10
  27    7.2748598465833e-11
  28    2.0549183178585e-06
  29    -1.7587409875302e-14
  30    8.9705402363071e-13
  31    3.2263118182717e-10
  32    2.7777209678494e-10
  33    -8.9044977456244e-06
  34    -4.6349415834667e-12
  35    1.322330742993e-12
 Sym= A
 Ene=              23
 Spin= Alpha
 Occup=    0.00000
   1    -0.00068701464903828
   2    0.0014308709992298
   3    2.5071883320477e-06
   4    4.5559489934773e-06
   5    7.9298786356029e-08
   6    -0.00068701448292168
   7    0.0014308710012696
   8    -2.5071922595594e-06
   9    4.5559530634211e-06
  10    7.9298325932705e-08
  11    0.00068701466873984
  12    -0.0014308709677836
  13    -2.5071909573944e-06
  14    4.5559516889346e-06
  15    -7.9298436403935e-08
  16    0.00068701441098871
  17    -0.0014308711957959
  18    2.5071869878403e-06
  19     4.55594779244e-06
  20    -7.9298305131833e-08
  21    -2.2321214919825e-10
  22    -2.1722511803875e-10
  23    -1.5483529965149e-14
  24       1.0000020549184
  25    -1.0738681024068e-12
  26    1.1490846722969e-10
  27    7.2778841511164e-11
  28    -1.3919915579182e-14
  29    2.0549183176419e-06
  30    8.9461345262542e-13
  31    3.226612475964e-10
  32    2.778114126512e-10
  33    -4.6373297784039e-12
  34    -8.9044977431614e-06
  35    1.3229293911888e-12
 Sym= A
 Ene=              24
 Spin= Alpha
 Occup=    0.00000
   1    0.0027495291534953
   2    -0.0058648169482939
   3    -0.00079028271758351
   4    -0.0007902827175808
   5    -6.6321313236839e-06
   6    0.0027495164152051
   7    -0.0058648290983447
   8    0.00079028276818845
   9    -0.00079028276711456
  10    -6.6321301301287e-06
  11    0.0027495164191004
  12    -0.0058648290951211
  13    -0.00079028276712269
  14    0.00079028276819134
  15    -6.6321301310266e-06
  16    0.0027495216982758
  17    -0.0058648243097607
  18    0.0007902827088164
  19    0.00079028270881273
  20    -6.6321304853598e-06
  21    0.0017929711728681
  22    -0.0049782877216994
  23    -2.5895222427908e-12
  24    -2.5901875220618e-12
  25       1.0011188880675
  26    0.0037521746000816
  27    -0.0079079810120453
  28    -3.2481937789581e-12
  29    -3.2480131269133e-12
  30    -0.0011186024937562
  31    -0.026745626699317
  32     0.053502128368941
  33    5.0645631907372e-11
  34    5.0627490524345e-11
  35    0.0011732051962979
 Sym= A
 Ene=              25
 Spin= Alpha
 Occup=    0.00000
   1    -0.0016540667120256
   2    0.0024378175825793
   3    -0.00028117864065408
   4    -0.00028117864080532
   5    -0.00026215999838794
   6    -0.0016540349575884
   7    0.0024378611299209
   8    0.00028117637860606
   9    -0.00028117695146136
  10    -0.00026215999401439
  11    -0.0016540349580833
  12    0.0024378611268517
  13    -0.00028117695181752
  14    0.00028117637908115
  15    -0.00026215999399704
  16    -0.0016540055403017
  17    0.0024377709139973
  18    0.00028117829239227
  19    0.00028117829267882
  20    -0.00026215988435967
  21     0.003374445113798
  22    -0.0087504524115482
  23    -1.3575196796932e-10
  24    -1.3579585239593e-10
  25    0.00063616170419054
  26       1.2209496623599
  27     -0.44309660976137
  28    2.8086629161724e-10
  29    2.8093131284707e-10
  30    -0.0015382587640586
  31    -0.022656079570395
  32     0.061859131170807
  33    -3.3059756191537e-09
  34    -3.3060458266464e-09
  35    -0.0079290217379867
 Sym= A
 Ene=              26
 Spin= Alpha
 Occup=    0.00000
   1    -0.00091162054849818
   2    -0.0018135726264972
   3    0.00045736585374778
   4    0.00045736585360074
   5    -0.00019340978483395
   6    -0.00091167498045456
   7    -0.0018135982754046
   8    -0.00045736815028225
   9    0.00045736762294458
  10    -0.00019340981164456
  11    -0.0009116749771453
  12    -0.0018135982748519
  13    0.00045736762263847
  14    -0.00045736814985204