[Molden Format]
made by pyscf v[2.0.1]
[Atoms] (AU)
He   1   2     0.00000000000000     0.00000000000000     0.00000000000000
He   2   2     5.34495263898958     0.00000000000000     0.00000000000000
He   3   2     0.00000000000000     5.34495263898958     0.00000000000000
He   4   2     5.34495262009232     5.34495262009232     0.00000000000000
He   5   2     2.67247631004616     2.67247631004616     3.77945224913012
He   6   2     2.67247631004616     2.67247631004616    -3.77945224913012
He   7   2     2.67247631004616     2.67247631004616     0.00000000000000
[GTO]
1 0
 s    3 1.00
                 38.36   0.040176075383249
                  5.77    0.26136807476949
                  1.24    0.79307123949544
 s    1 1.00
                0.2976                   1
 p    1 1.00
                 1.275                   1

2 0
 s    3 1.00
                 38.36   0.040176075383249
                  5.77    0.26136807476949
                  1.24    0.79307123949544
 s    1 1.00
                0.2976                   1
 p    1 1.00
                 1.275                   1

3 0
 s    3 1.00
                 38.36   0.040176075383249
                  5.77    0.26136807476949
                  1.24    0.79307123949544
 s    1 1.00
                0.2976                   1
 p    1 1.00
                 1.275                   1

4 0
 s    3 1.00
                 38.36   0.040176075383249
                  5.77    0.26136807476949
                  1.24    0.79307123949544
 s    1 1.00
                0.2976                   1
 p    1 1.00
                 1.275                   1

5 0
 s    3 1.00
                 38.36   0.040176075383249
                  5.77    0.26136807476949
                  1.24    0.79307123949544
 s    1 1.00
                0.2976                   1
 p    1 1.00
                 1.275                   1

6 0
 s    3 1.00
                 38.36   0.040176075383249
                  5.77    0.26136807476949
                  1.24    0.79307123949544
 s    1 1.00
                0.2976                   1
 p    1 1.00
                 1.275                   1

7 0
 s    3 1.00
                 38.36   0.040176075383249
                  5.77    0.26136807476949
                  1.24    0.79307123949544
 s    1 1.00
                0.2976                   1
 p    1 1.00
                 1.275                   1

[5d]
[7f]
[9g]

[MO]
 Sym= A
 Ene=               0
 Spin= Alpha
 Occup=    1.00000
   1       1.2205359361952
   2     -0.44135530133791
   3    -0.00086717043719847
   4    -0.00086717043719859
   5    -5.5104081971872e-17
   6    -0.0010998015751446
   7    0.0014090936796812
   8    0.00029181025691577
   9    -0.00084389743358473
  10    -2.984881204471e-18
  11    -0.0010998015751446
  12    0.0014090936796813
  13    -0.00084389743358455
  14    0.00029181025691562
  15    -2.7937620075952e-20
  16    0.0020572679359489
  17    -0.0046131236697628
  18    0.00083874190869029
  19    0.0008387419086903
  20    -3.5145426912518e-20
  21    -0.0010998016335058
  22    0.0014090937840527
  23    -0.00027604360077849
  24    -0.00027604360077849
  25    0.00080306660836489
  26    -0.0010998016335058
  27    0.0014090937840526
  28    -0.00027604360077849
  29    -0.00027604360077849
  30    -0.00080306660836489
  31    -0.014753013130813
  32     0.037336201861162
  33    -0.0084870393748083
  34    -0.0084870393748083
  35    -7.9200889290727e-20
 Sym= A
 Ene=               1
 Spin= Alpha
 Occup=    1.00000
   1     -0.44135530133791
   2        1.230982020643
   3    0.0020784115715202
   4    0.0020784115715202
   5    -1.8551026500399e-17
   6    0.0014090936631131
   7    -0.0014512010123288
   8    -0.00093064802642363
   9    0.0020345666845818
  10    3.2235989930269e-18
  11     0.001409093663113
  12    -0.0014512010123288
  13    0.0020345666845817
  14    -0.00093064802642367
  15    1.2948081678167e-19
  16    -0.0046131236684274
  17     0.010975008094007
  18    -0.002025262796371
  19    -0.002025262796371
  20    1.4416944804571e-19
  21    0.0014090937765922
  22    -0.001451201228631
  23    0.00055195935522857
  24    0.00055195935522857
  25    -0.0020967234331392
  26    0.0014090937765921
  27    -0.001451201228631
  28    0.00055195935522857
  29    0.00055195935522857
  30    0.0020967234331392
  31     0.038123497257337
  32    -0.099939544555408
  33     0.017272012992247
  34     0.017272012992247
  35    4.9218073627518e-20
 Sym= A
 Ene=               2
 Spin= Alpha
 Occup=    1.00000
   1    -0.00086717043719847
   2    0.0020784115715202
   3       1.0003724223132
   4    0.00037102252645395
   5    1.5470227097058e-16
   6    -0.0002918102625277
   7    0.00093064803257708
   8    -0.00037010148987611
   9    0.0003703130372247
  10    4.0396739501843e-16
  11    -0.0008438974453602
  12    0.0020345667056314
  13    0.00037030029739855
  14    -0.00037031303997455
  15    -6.3142370535812e-17
  16    -0.0008387419077082
  17    0.0020252627946549
  18    -0.00036965033843765
  19    -0.00037105012513616
  20    -8.5290361356227e-17
  21    -0.0005678538488255
  22    0.0014826073647321
  23    7.4651710969258e-07
  24    -6.4711197055569e-07
  25    -0.00052362242874049
  26    -0.00056785384882542
  27    0.0014826073647321
  28    7.4651710939742e-07
  29    -6.4711197010234e-07
  30    0.00052362242874086
  31    0.0091713053706338
  32    -0.018743401117474
  33    0.00047275470080633
  34    0.00048459588266317
  35    -1.2222219560759e-16
 Sym= A
 Ene=               3
 Spin= Alpha
 Occup=    1.00000
   1    -0.00086717043719859
   2    0.0020784115715202
   3    0.00037102252645402
   4       1.0003724223132
   5    -8.3331576400374e-17
   6    -0.00084389744536024
   7    0.0020345667056314
   8    -0.00037031303997399
   9    0.00037030029739926
  10    -4.8275209462792e-16
  11    -0.00029181026252799
  12    0.00093064803257719
  13    0.00037031303722521
  14    -0.00037010148987539
  15    8.8672576252025e-17
  16    -0.0008387419077083
  17     0.002025262794655
  18    -0.00037105012513619
  19    -0.00036965033843759
  20    1.4891827254031e-16
  21    -0.0005678538488255
  22    0.0014826073647322
  23    -6.4711197088866e-07
  24    7.4651710942032e-07
  25    -0.00052362242874096
  26    -0.00056785384882561
  27    0.0014826073647322
  28    -6.4711197071203e-07
  29    7.465171089326e-07
  30    0.00052362242874064
  31    0.0091713053706337
  32    -0.018743401117474
  33    0.00048459588266327
  34    0.00047275470080649
  35    1.0282175298367e-16
 Sym= A
 Ene=               4
 Spin= Alpha
 Occup=    1.00000
   1    -5.5100324459615e-17
   2    -1.8551026495391e-17
   3    1.5336069278063e-16
   4    -8.6743657614884e-17
   5       1.0000013997868
   6    -8.9565469353524e-17
   7    1.1625670862115e-16
   8    4.0147993704522e-16
   9    1.7990463794366e-16
  10    1.3936291275648e-06
  11    9.7468431780772e-17
  12    -7.0253885025531e-17
  13    7.2118737490303e-16
  14    1.0990392675329e-16
  15    1.3936291278114e-06
  16    1.0780827089608e-16
  17    -7.36563850681e-17
  18    -2.3305629409176e-17
  19    1.9722784023148e-16
  20    1.3997867292592e-06
  21    0.00039038460462789
  22    -0.00078058840726375
  23    7.9298470688909e-08
  24    7.9298470556015e-08
  25    9.9405149766972e-08
  26    -0.0003903846046279
  27    0.0007805884072638
  28    -7.9298470832035e-08
  29    -7.9298471898008e-08
  30    9.9405149554946e-08
  31    -1.3054117519385e-16
  32    1.1174410350043e-16
  33    1.2778277807917e-16
  34    -1.1628775557299e-16
  35    -1.1841179837092e-05
 Sym= A
 Ene=               5
 Spin= Alpha
 Occup=    1.00000
   1    -0.0010998015751446
   2     0.001409093663113
   3    -0.0002918102625277
   4    -0.00084389744536025
   5    -8.960038039917e-17
   6       1.2205359361315
   7     -0.44135530118944
   8    0.00086717041234058
   9    -0.00086717040654951
  10    -1.4997544154536e-17
  11    0.0020572679002843
  12    -0.0046131235713281
  13    -0.00083874188027575
  14    0.00083874188585892
  15    -1.1714617502763e-17
  16    -0.001099801667051
  17     0.001409093845004
  18    0.00084389744711833
  19    0.0002918102373016
  20    3.2129604171898e-17
  21    -0.0010998016100742
  22    0.0014090937422631
  23    0.00027604359585603
  24    -0.00027604359411428
  25    0.0008030666056118
  26    -0.0010998016100741
  27    0.0014090937422632
  28    0.00027604359585606
  29    -0.0002760435941143
  30    -0.00080306660561146
  31    -0.014753013070332
  32     0.037336201475359
  33    0.0084870392313741
  34    -0.0084870391779578
  35    -2.5484585654578e-16
 Sym= A
 Ene=               6
 Spin= Alpha
 Occup=    1.00000
   1    0.0014090936796812
   2    -0.0014512010123288
   3    0.00093064803257708
   4    0.0020345667056314
   5    1.1625670891134e-16
   6     -0.44135530118944
   7        1.230982020268
   8    -0.0020784115048943
   9    0.0020784114907462
  10    -4.9395990627795e-17
  11    -0.004613123571328
  12     0.010975007813959
  13    0.0020252627199088
  14    -0.0020252627336687
  15    -5.6554365073689e-17
  16    0.0014090938626874
  17    -0.001451201404217
  18    -0.0020345667090536
  19    -0.0009306479820475
  20    -3.3550317714469e-17
  21    0.0014090937512607
  22    -0.0014512011897945
  23    -0.0005519593454086
  24    0.00055195934191068
  25    -0.0020967234119765
  26    0.0014090937512606
  27    -0.0014512011897946
  28    -0.00055195934540859
  29    0.0005519593419107
  30    0.0020967234119765
  31     0.038123496863809
  32    -0.099939543112763
  33    -0.017272012688959
  34     0.017272012579523
  35    1.0402778893422e-17
 Sym= A
 Ene=               7
 Spin= Alpha
 Occup=    0.00000
   1    0.00029181025691577
   2    -0.00093064802642363
   3    -0.00037010148987615
   4    -0.00037031303997401
   5    4.0174020057549e-16
   6    0.00086717041234058
   7    -0.0020784115048943
   8       1.0003724223003
   9    -0.00037102251079149
  10    1.5482527783296e-15
  11    0.00083874188585919
  12    -0.0020252627336687
  13    -0.00036965032306297
  14    0.00037105011243945
  15    -1.5816201498202e-15
  16    0.00084389743686709
  17    -0.0020345666938192
  18    0.00037030030004086
  19    0.00037031303986266
  20    -5.2316277904678e-16
  21    0.00056785383922959
  22    -0.0014826073395337
  23    7.4651713278049e-07
  24    6.4711198737431e-07
  25    0.00052362241972047
  26    0.00056785383923002
  27    -0.0014826073395336
  28    7.4651713114327e-07
  29    6.4711198977194e-07
  30    -0.00052362241972074
  31    -0.0091713052184172
  32     0.018743400793008
  33    0.00047275467974082
  34    -0.00048459585314385
  35    2.8900340643843e-15
 Sym= A
 Ene=               8
 Spin= Alpha
 Occup=    0.00000
   1    -0.00084389743358473
   2    0.0020345666845818
   3    0.00037031303722466
   4    0.00037030029739927
   5    1.7654846359236e-16
   6    -0.00086717040654951
   7    0.0020784114907462
   8    -0.0003710225107915
   9       1.0003724222949
  10    9.5897016044346e-16
  11    -0.00083874188027565
  12    0.0020252627199088
  13    0.00037105010706693
  14    -0.00036965032306569
  15    -1.5540284954187e-15
  16    -0.00029181022451048
  17    0.00093064795921411
  18    -0.0003703130371039
  19    -0.00037010148697478
  20    -4.8733989971574e-16
  21    -0.00056785383529439
  22    0.0014826073290825
  23    6.4711200717737e-07
  24    7.4651714856015e-07
  25    -0.00052362241586988
  26    -0.00056785383529442
  27    0.0014826073290825
  28    6.4711200596396e-07
  29    7.4651715071404e-07
  30    0.0005236224158746
  31    0.0091713051509242
  32    -0.018743400654213
  33    -0.00048459585262013
  34    0.00047275467309861
  35    -1.7422324230542e-15
 Sym= A
 Ene=               9
 Spin= Alpha
 Occup=    0.00000
   1    -2.9852262386197e-18
   2    3.2235989766555e-18
   3    4.1606396857846e-16
   4    -4.9020029942171e-16
   5    1.393629127557e-06
   6    -1.4985412819347e-17
   7    -4.9395990384511e-17
   8    1.5487963726283e-15
   9    9.6047490236434e-16
  10       1.0000013997867
  11     5.48941728059e-17
  12    -3.4248569604522e-17
  13    1.6844254381969e-15
  14    1.0665003438048e-15
  15    1.3997866608585e-06
  16    -1.2238975030873e-18
  17    1.3332214362293e-18
  18    1.0808344677623e-16
  19    -3.3146953473702e-16
  20    1.3936291264559e-06
  21    0.00039038459516108
  22    -0.00078058838832644
  23    -7.9298467517257e-08
  24    7.9298464585151e-08
  25    9.9405146368882e-08
  26    -0.00039038459516115
  27    0.00078058838832651
  28    7.9298465005395e-08
  29     -7.9298467491e-08
  30    9.940514632273e-08
  31    -5.8715976769081e-18
  32    -6.4577911704271e-18
  33    8.3382580468519e-17
  34    -1.8912416506418e-16
  35    -1.1841177322586e-05
 Sym= A
 Ene=              10
 Spin= Alpha
 Occup=    0.00000
   1    -0.0010998015751446
   2     0.001409093663113
   3    -0.00084389744536021
   4    -0.00029181026252799
   5    9.753282617541e-17
   6    0.0020572679002843
   7    -0.0046131235713279
   8    0.00083874188585919
   9    -0.00083874188027566
  10    5.4935787490082e-17
  11       1.2205359361315
  12     -0.44135530118944
  13    -0.00086717040654915
  14    0.00086717041234085
  15    -1.8408884925006e-17
  16    -0.0010998016670511
  17     0.001409093845004
  18    0.00029181023730159
  19    0.00084389744711828
  20    1.0551321260385e-17
  21    -0.0010998016100742
  22     0.001409093742263
  23    -0.00027604359411435
  24    0.00027604359585594
  25    0.00080306660561137
  26    -0.0010998016100742
  27    0.0014090937422631
  28    -0.00027604359411438
  29    0.00027604359585593
  30    -0.00080306660561175
  31    -0.014753013070331
  32     0.037336201475358
  33    -0.0084870391779578
  34    0.0084870392313741
  35    2.9009675391977e-16
 Sym= A
 Ene=              11
 Spin= Alpha
 Occup=    0.00000
   1    0.0014090936796813
   2    -0.0014512010123288
   3    0.0020345667056314
   4    0.00093064803257719
   5    -7.0253884831028e-17
   6    -0.0046131235713282
   7     0.010975007813959
   8    -0.0020252627336687
   9    0.0020252627199088
  10    -3.4248569600331e-17
  11     -0.44135530118944
  12        1.230982020268
  13     0.002078411490746
  14    -0.0020784115048944
  15    5.1299252104014e-17
  16    0.0014090938626875
  17    -0.001451201404217
  18    -0.00093064798204747
  19    -0.0020345667090537
  20    1.256727472273e-17
  21    0.0014090937512607
  22    -0.0014512011897945
  23    0.00055195934191073
  24    -0.00055195934540854
  25    -0.0020967234119764
  26    0.0014090937512608
  27    -0.0014512011897945
  28    0.00055195934191068
  29    -0.00055195934540859
  30    0.0020967234119765
  31     0.038123496863809
  32    -0.099939543112763
  33     0.017272012579523
  34    -0.017272012688959
  35    -1.4376432133396e-17
 Sym= A
 Ene=              12
 Spin= Alpha
 Occup=    0.00000
   1    -0.00084389743358455
   2    0.0020345666845817
   3    0.00037030029739856
   4    0.00037031303722521
   5    7.199605087194e-16
   6    -0.00083874188027575
   7    0.0020252627199088
   8    -0.00036965032306297
   9    0.00037105010706687
  10    1.6855052243203e-15
  11    -0.00086717040654915
  12     0.002078411490746
  13       1.0003724222949
  14    -0.00037102251079155
  15    -1.2663829229082e-15
  16    -0.00029181022451055
  17    0.00093064795921413
  18    -0.0003701014869743
  19    -0.00037031303710445
  20    -4.4362120693787e-16
  21    -0.0005678538352948
  22    0.0014826073290827
  23    7.4651714959716e-07
  24    6.4711200426266e-07
  25    -0.00052362241587424
  26    -0.00056785383529439
  27    0.0014826073290827
  28    7.4651714789737e-07
  29    6.4711200729866e-07
  30    0.00052362241587186
  31    0.0091713051509242
  32    -0.018743400654213
  33    0.00047275467309952
  34    -0.00048459585262113
  35    2.3909542050491e-15
 Sym= A
 Ene=              13
 Spin= Alpha
 Occup=    0.00000
   1    0.00029181025691562
   2    -0.00093064802642367
   3    -0.00037031303997457
   4    -0.00037010148987537
   5    1.0917401032082e-16
   6    0.00083874188585892
   7    -0.0020252627336687
   8    0.00037105011243945
   9    -0.00036965032306569
  10    1.0645505845104e-15
  11    0.00086717041234085
  12    -0.0020784115048944
  13    -0.00037102251079155
  14       1.0003724223002
  15    -1.1152092503165e-15
  16    0.00084389743686709
  17    -0.002034566693819
  18    0.0003703130398631
  19    0.00037030030004029
  20    -5.6560565598666e-16
  21    0.00056785383922982
  22    -0.0014826073395335
  23    6.471119906589e-07
  24    7.4651713272535e-07
  25    0.00052362241972455
  26    0.00056785383922981
  27    -0.0014826073395337
  28    6.471119897449e-07
  29    7.4651713492176e-07
  30    -0.00052362241971819
  31    -0.0091713052184172
  32     0.018743400793008
  33    -0.00048459585314158
  34    0.0004727546797386
  35    -1.15065402478e-15
 Sym= A
 Ene=              14
 Spin= Alpha
 Occup=    0.00000
   1    -2.4541410630321e-20
   2    1.2948082242428e-19
   3    -5.1026341426265e-17
   4    8.1449157223643e-17
   5    1.3936291277762e-06
   6    -1.1741531682658e-17
   7    -5.6554365352642e-17
   8    -1.5820902121802e-15
   9    -1.553726679498e-15
  10    1.3997866608298e-06
  11    -1.8465663995933e-17
  12    5.1299252311867e-17
  13    -1.2675433754425e-15
  14    -1.114195075557e-15
  15       1.0000013997867
  16    -1.2001144490646e-17
  17    -6.9788973720126e-18
  18    -3.708956355466e-16
  19    2.9482616310211e-16
  20    1.3936291271892e-06
  21    0.00039038459516129
  22    -0.00078058838832661
  23    7.9298466722288e-08
  24    -7.9298464416615e-08
  25    9.9405145859696e-08
  26    -0.00039038459516129
  27    0.00078058838832662
  28    -7.9298464300539e-08
  29    7.9298467464407e-08
  30    9.940514585898e-08
  31    -4.0516037714787e-18
  32    -4.2631546865515e-18
  33    9.4549610845073e-19
  34    -2.1214464555131e-18
  35    -1.1841177322808e-05
 Sym= A
 Ene=              15
 Spin= Alpha
 Occup=    0.00000
   1    0.0020572679359488
   2    -0.0046131236684274
   3    -0.0008387419077082
   4    -0.0008387419077083
   5    1.0781560765877e-16
   6    -0.001099801667051
   7    0.0014090938626874
   8    0.00084389743686709
   9    -0.00029181022451048
  10    -1.2071107661072e-18
  11    -0.0010998016670511
  12    0.0014090938626875
  13    -0.00029181022451055
  14    0.00084389743686709
  15    -1.1994169011379e-17
  16       1.2205359361962
  17     -0.44135530133864
  18    0.0008671704363544
  19    0.00086717043635431
  20    9.7048741221348e-18
  21    -0.0010998016330941
  22     0.001409093784429
  23    0.00027604360076808
  24    0.00027604360076809
  25    0.00080306660707342
  26    -0.0010998016330941
  27     0.001409093784429
  28    0.00027604360076806
  29    0.00027604360076806
  30    -0.00080306660707343
  31    -0.014753013107456
  32     0.037336201810236
  33    0.0084870393744954
  34    0.0084870393744955
  35    1.7454933675522e-18
 Sym= A
 Ene=              16
 Spin= Alpha
 Occup=    0.00000
   1    -0.0046131236697629
   2     0.010975008094007
   3    0.0020252627946549
   4     0.002025262794655
   5    -7.3656385065513e-17
   6     0.001409093845004
   7    -0.001451201404217
   8    -0.0020345666938192
   9    0.00093064795921411
  10    1.3332214174375e-18
  11     0.001409093845004
  12    -0.001451201404217
  13    0.00093064795921413
  14    -0.002034566693819
  15    -6.9788973687903e-18
  16     -0.44135530133864
  17       1.2309820206428
  18    -0.0020784115698584
  19    -0.0020784115698583
  20    -1.942387634636e-17
  21    0.0014090937756328
  22    -0.0014512012288232
  23    -0.00055195935522321
  24    -0.00055195935522321
  25    -0.0020967234307504
  26    0.0014090937756328
  27    -0.0014512012288232
  28    -0.00055195935522322
  29    -0.00055195935522321
  30    0.0020967234307504
  31     0.038123497214091
  32    -0.099939544456814
  33    -0.017272012992116
  34    -0.017272012992116
  35    -2.0108859952838e-18
 Sym= A
 Ene=              17
 Spin= Alpha
 Occup=    0.00000
   1    0.00083874190869029
   2    -0.002025262796371
   3    -0.00036965033843766
   4    -0.00037105012513619
   5    -3.8195409026452e-17
   6    0.00084389744711833
   7    -0.0020345667090536
   8    0.00037030030004085
   9    -0.00037031303710391
  10    1.125099934816e-16
  11    0.00029181023730159
  12    -0.00093064798204747
  13    -0.0003701014869743
  14    0.00037031303986309
  15    -3.662884099027e-16
  16    0.0008671704363544
  17    -0.0020784115698584
  18        1.000372422313
  19    0.00037102252620653
  20    -2.0257203556405e-16
  21    0.00056785384889431
  22    -0.0014826073647591
  23    7.465171560536e-07
  24    -6.4711199266324e-07
  25    0.00052362242861439
  26    0.00056785384889433
  27    -0.0014826073647592
  28    7.4651715566139e-07
  29    -6.4711199211875e-07
  30    -0.00052362242861397
  31    -0.0091713053683375
  32     0.018743401112042
  33    0.00047275470228183
  34    0.00048459588200486
  35    -1.059168643125e-16
 Sym= A
 Ene=              18
 Spin= Alpha
 Occup=    0.00000
   1    0.0008387419086903
   2    -0.002025262796371
   3    -0.00037105012513614
   4    -0.00036965033843761
   5    2.0745560554778e-16
   6    0.0002918102373016
   7    -0.00093064798204749
   8    0.00037031303986266
   9    -0.00037010148697478
  10    -3.3127392858803e-16
  11    0.00084389744711828
  12    -0.0020345667090537
  13    -0.00037031303710448
  14    0.00037030030004028
  15    2.9513606984118e-16
  16    0.00086717043635431
  17    -0.0020784115698583
  18    0.00037102252620653
  19        1.000372422313
  20      1.1784440268e-16
  21    0.00056785384889432
  22    -0.0014826073647591
  23    -6.4711199187212e-07
  24    7.4651715664729e-07
  25    0.00052362242861392
  26    0.00056785384889438
  27    -0.0014826073647591
  28    -6.4711199153234e-07
  29    7.465171562082e-07
  30    -0.00052362242861439
  31    -0.0091713053683375
  32     0.018743401112042
  33    0.00048459588200469
  34    0.00047275470228175
  35    1.1037831919459e-16
 Sym= A
 Ene=              19
 Spin= Alpha
 Occup=    0.00000
   1    -4.1106245618791e-20
   2    1.4416940215323e-19
   3    -7.9562461694002e-17
   4    1.3840305290006e-16
   5    1.3997867292797e-06
   6    3.2175951937846e-17
   7    -3.3550317573256e-17
   8    -5.2403622892473e-16
   9    -4.861919329711e-16
  10    1.3936291264187e-06
  11    1.047549035224e-17
  12    1.2567274510418e-17
  13    -4.4414804373692e-16
  14    -5.6541870024533e-16
  15    1.3936291272075e-06
  16    9.7072556839436e-18
  17    -1.9423876298047e-17
  18    -1.8043161354653e-16
  19    1.1446073331429e-16
  20       1.0000013997868
  21    0.00039038460462786
  22    -0.00078058840726378
  23    -7.9298470382556e-08
  24    -7.9298470361301e-08
  25    9.9405149471199e-08
  26    -0.00039038460462789
  27    0.00078058840726382
  28    7.9298471501377e-08
  29    7.9298471155538e-08
  30    9.9405149276195e-08
  31    -9.2512353893186e-18
  32    -5.4719452106904e-18
  33    3.7262169876604e-17
  34    -7.4742351412343e-17
  35    -1.1841179837074e-05
 Sym= A
 Ene=              20
 Spin= Alpha
 Occup=    0.00000
   1    -0.0010998016335058
   2    0.0014090937765921
   3    -0.0005678538488255
   4    -0.0005678538488255
   5    0.00039038460462789
   6    -0.0010998016100742
   7    0.0014090937512607
   8    0.00056785383922959
   9    -0.00056785383529439
  10    0.00039038459516108
  11    -0.0010998016100742
  12    0.0014090937512607
  13    -0.0005678538352948
  14    0.00056785383922982
  15    0.00039038459516129
  16    -0.0010998016330941
  17    0.0014090937756327
  18    0.00056785384889431
  19    0.00056785384889432
  20    0.00039038460462786
  21       1.2205359361652
  22     -0.44135530126764
  23    -5.2211536806435e-15
  24    -5.1778335743076e-15
  25    0.0012263641742328
  26    0.0020572679190194
  27    -0.0046131236226911
  28    -5.2816489353693e-15
  29    -5.2058808444378e-15
  30    -0.0011861601650374
  31    -0.014753013095972
  32     0.037336201664675
  33    -1.5701208263687e-13
  34    -1.5658707924021e-13
  35      0.01200248607393
 Sym= A
 Ene=              21
 Spin= Alpha
 Occup=    0.00000
   1    0.0014090937840527
   2    -0.001451201228631
   3    0.0014826073647321
   4    0.0014826073647322
   5    -0.00078058840726375
   6    0.0014090937422631
   7    -0.0014512011897945
   8    -0.0014826073395337
   9    0.0014826073290825
  10    -0.00078058838832644
  11     0.001409093742263
  12    -0.0014512011897944
  13    0.0014826073290827
  14    -0.0014826073395335
  15    -0.00078058838832661
  16     0.001409093784429
  17    -0.0014512012288232
  18    -0.0014826073647591
  19    -0.0014826073647591
  20    -0.00078058840726378
  21     -0.44135530126764
  22        1.230982020465
  23    2.6916790468616e-15
  24    2.7168109368561e-15
  25    -0.0029393177825507
  26    -0.0046131236226911
  27     0.010975007961088
  28    2.6724318967781e-15
  29    2.6903295000113e-15
  30    0.0028641540666556
  31     0.038123497059201
  32    -0.099939543844802
  33    6.587030954589e-14
  34    6.5881686887098e-14
  35    -0.024426314782774
 Sym= A
 Ene=              22
 Spin= Alpha
 Occup=    0.00000
   1    -0.00027604360077849
   2    0.00055195935522857
   3    7.4651710969337e-07
   4    -6.4711197089191e-07
   5    7.9298470696204e-08
   6    0.00027604359585603
   7    -0.0005519593454086
   8    7.4651713278149e-07
   9    6.4711200717835e-07
  10    -7.9298467476834e-08
  11    -0.00027604359411435
  12    0.00055195934191073
  13    7.4651714959345e-07
  14    6.4711199067491e-07
  15    7.929846673792e-08
  16    0.00027604360076808
  17    -0.00055195935522321
  18    7.4651715606667e-07
  19    -6.4711199189089e-07
  20    -7.9298470367337e-08
  21    -5.2211661666046e-15
  22    2.6916790467314e-15
  23       1.0000013997868
  24    2.9281662157825e-14
  25    8.3083427591745e-15
  26    -5.3860957736721e-15
  27    2.6414279984353e-15
  28    1.3997866956662e-06
  29    2.7179954331888e-14
  30    -9.7636217964601e-15
  31    -1.6366655608941e-13
  32    3.9246562827474e-13
  33    -1.18411786906e-05
  34    9.0730098631538e-13
  35    -6.0606181463935e-16
 Sym= A
 Ene=              23
 Spin= Alpha
 Occup=    0.00000
   1    -0.00027604360077849
   2    0.00055195935522857
   3    -6.4711197055502e-07
   4    7.4651710938226e-07
   5    7.9298470580636e-08
   6    -0.00027604359411428
   7    0.00055195934191068
   8    6.4711198738215e-07
   9    7.4651714854932e-07
  10    7.9298464533944e-08
  11    0.00027604359585594
  12    -0.00055195934540854
  13    6.4711200426216e-07
  14    7.4651713274466e-07
  15    -7.9298464393918e-08
  16    0.00027604360076809
  17    -0.00055195935522321
  18    -6.4711199266851e-07
  19    7.4651715665702e-07
  20    -7.9298470363316e-08
  21    -5.1778109120511e-15
  22    2.7168109368114e-15
  23    2.9302864615741e-14
  24       1.0000013997868
  25     7.50366435958e-15
  26    -5.3531241918241e-15
  27    2.6698337810871e-15
  28    3.0859672186997e-14
  29    1.3997866954422e-06
  30    -1.0215964163178e-14
  31    -1.636202687594e-13
  32    3.9247239104716e-13
  33    9.0567183680233e-13
  34    -1.1841178688958e-05
  35    -6.6043794172128e-16
 Sym= A
 Ene=              24
 Spin= Alpha
 Occup=    0.00000
   1    0.00080306660836489
   2    -0.0020967234331392
   3    -0.00052362242874048
   4    -0.00052362242874096
   5    9.9405149767567e-08
   6    0.0008030666056118
   7    -0.0020967234119765
   8    0.00052362241972048
   9    -0.0005236224158699
  10    9.9405146369137e-08
  11    0.00080306660561137
  12    -0.0020967234119764
  13    -0.00052362241587423
  14    0.00052362241972456
  15    9.9405145861474e-08
  16    0.00080306660707342
  17    -0.0020967234307504
  18    0.0005236224286144
  19    0.00052362242861392
  20    9.9405149474108e-08
  21    0.0012263641742328
  22    -0.0029393177825507
  23    8.3083812077733e-15
  24    7.5029632754282e-15
  25       1.0007434448247
  26    0.0011861601650373
  27    -0.0028641540666556
  28    7.8347078020054e-15
  29    7.9270366717633e-15
  30    -0.00074070044898302
  31    -0.012970184314142
  32     0.026507171798946
  33    2.8600263988985e-13
  34    2.9096903621159e-13
  35    0.00095735055797441
 Sym= A
 Ene=              25
 Spin= Alpha
 Occup=    0.00000
   1    -0.0010998016335059
   2    0.0014090937765921
   3    -0.00056785384882542
   4    -0.00056785384882561
   5    -0.0003903846046279
   6    -0.0010998016100741
   7    0.0014090937512606
   8    0.00056785383923002
   9    -0.00056785383529443
  10    -0.00039038459516115
  11    -0.0010998016100742
  12    0.0014090937512608
  13    -0.00056785383529439
  14    0.00056785383922981
  15    -0.00039038459516129
  16    -0.0010998016330941
  17    0.0014090937756328
  18    0.00056785384889434
  19    0.00056785384889439
  20    -0.00039038460462789
  21    0.0020572679190193
  22    -0.004613123622691
  23    -5.3861533577492e-15
  24    -5.3531735420213e-15
  25    0.0011861601650373
  26       1.2205359361652
  27     -0.44135530126764
  28    -5.3635252307114e-15
  29    -5.3356010850841e-15
  30    -0.0012263641742326
  31    -0.014753013095972
  32     0.037336201664675
  33    -1.565868112749e-13
  34    -1.5705360949508e-13
  35     -0.01200248607393
 Sym= A
 Ene=              26
 Spin= Alpha
 Occup=    0.00000
   1    0.0014090937840526
   2    -0.0014512012286309
   3    0.0014826073647321
   4    0.0014826073647322
   5    0.0007805884072638
   6    0.0014090937422632
   7    -0.0014512011897946
   8    -0.0014826073395336
   9    0.0014826073290825
  10    0.00078058838832651
  11    0.0014090937422631
  12    -0.0014512011897945
  13    0.0014826073290827
  14    -0.0014826073395337
  15    0.00078058838832662