[Molden Format]
made by pyscf v[2.0.1]
[Atoms] (AU)
He   1   2     0.00000000000000     0.00000000000000     0.00000000000000
He   2   2     8.01742894903574     0.00000000000000     0.00000000000000
He   3   2     0.00000000000000     8.01742894903574     0.00000000000000
He   4   2     8.01742894903574     8.01742894903574     0.00000000000000
He   5   2     4.00871446506924     4.00871446506924     5.66917837369519
He   6   2     4.00871446506924     4.00871446506924    -5.66917837369519
He   7   2     4.00871446506924     4.00871446506924     0.00000000000000
[GTO]
1 0
 s    3 1.00
                 38.36   0.040176075383249
                  5.77    0.26136807476949
                  1.24    0.79307123949544
 s    1 1.00
                0.2976                   1
 s    1 1.00
               0.07255                   1
 p    1 1.00
                 1.275                   1
 p    1 1.00
                0.2473                   1

2 0
 s    3 1.00
                 38.36   0.040176075383249
                  5.77    0.26136807476949
                  1.24    0.79307123949544
 s    1 1.00
                0.2976                   1
 s    1 1.00
               0.07255                   1
 p    1 1.00
                 1.275                   1
 p    1 1.00
                0.2473                   1

3 0
 s    3 1.00
                 38.36   0.040176075383249
                  5.77    0.26136807476949
                  1.24    0.79307123949544
 s    1 1.00
                0.2976                   1
 s    1 1.00
               0.07255                   1
 p    1 1.00
                 1.275                   1
 p    1 1.00
                0.2473                   1

4 0
 s    3 1.00
                 38.36   0.040176075383249
                  5.77    0.26136807476949
                  1.24    0.79307123949544
 s    1 1.00
                0.2976                   1
 s    1 1.00
               0.07255                   1
 p    1 1.00
                 1.275                   1
 p    1 1.00
                0.2473                   1

5 0
 s    3 1.00
                 38.36   0.040176075383249
                  5.77    0.26136807476949
                  1.24    0.79307123949544
 s    1 1.00
                0.2976                   1
 s    1 1.00
               0.07255                   1
 p    1 1.00
                 1.275                   1
 p    1 1.00
                0.2473                   1

6 0
 s    3 1.00
                 38.36   0.040176075383249
                  5.77    0.26136807476949
                  1.24    0.79307123949544
 s    1 1.00
                0.2976                   1
 s    1 1.00
               0.07255                   1
 p    1 1.00
                 1.275                   1
 p    1 1.00
                0.2473                   1

7 0
 s    3 1.00
                 38.36   0.040176075383249
                  5.77    0.26136807476949
                  1.24    0.79307123949544
 s    1 1.00
                0.2976                   1
 s    1 1.00
               0.07255                   1
 p    1 1.00
                 1.275                   1
 p    1 1.00
                0.2473                   1

[5d]
[7f]
[9g]

[MO]
 Sym= A
 Ene=               0
 Spin= Alpha
 Occup=    1.00000
   1       1.2505314008315
   2     -0.54795952550959
   3      0.13268234788169
   4    -0.0013053280653167
   5    -0.0013052841185131
   6    6.3071774329935e-09
   7    0.0037920014350593
   8    0.0037918715330805
   9    -1.7178989542972e-08
  10    -0.0013824003424123
  11    0.0051830754926146
  12    -0.0058615169632483
  13    -0.0010771282401679
  14    -0.00033970739837549
  15    -7.0562615379906e-07
  16    0.0026729218890622
  17    0.0017329394853461
  18    3.8528419412005e-07
  19    -0.0013752630297217
  20    0.0051742026854982
  21    -0.0058570986722396
  22    -0.00033964806359788
  23    -0.0010772774752218
  24     1.61445041262e-06
  25    0.0017324634079076
  26    0.0026741771776228
  27    -6.411437895667e-07
  28    0.00060059907633532
  29    -0.0024043225192832
  30    0.0053916310687366
  31    9.1838939684866e-05
  32    9.1784929725752e-05
  33    6.469544812268e-07
  34    -0.0011659864440312
  35    -0.0011691769408919
  36    1.4557034820998e-06
  37    -0.0013783078368966
  38    0.0051614631494256
  39    -0.0058311481184342
  40    -0.00071024096592366
  41    -0.00070819938967427
  42    -0.00052140599837899
  43    0.0022006134037762
  44    0.0021985479518471
  45    0.00066178355909478
  46    -0.0013782580659011
  47    0.0051648970366736
  48    -0.0058314890109919
  49    -0.00070865101410817
  50    -0.00070982746327246
  51    0.00052053097366154
  52    0.0022001317175076
  53    0.0021995106839064
  54    -0.00066396792006052
  55    -0.0022110126707591
  56    0.0092099467264472
  57    -0.019479646747926
  58    -0.0025382800929697
  59    -0.0025357814078705
  60    -1.9017842389135e-06
  61      0.01033360613499
  62     0.010332979313239
  63    -1.8076886993893e-07
 Sym= A
 Ene=               1
 Spin= Alpha
 Occup=    1.00000
   1     -0.54707532272506
   2       1.6926464038582
   3     -0.70993723556764
   4    0.0065980210643885
   5    0.0065980618029402
   6    8.7372399596161e-09
   7    -0.019787373866796
   8    -0.019787487477325
   9    -1.5385116792527e-08
  10    0.0042732139763531
  11    -0.019692830644122
  12     0.025146015489697
  13    0.0054198995139421
  14    0.0014014811851624
  15    -6.0988414284815e-07
  16    -0.012997711856247
  17    -0.007865392564567
  18    3.3248776222582e-07
  19     0.004279987793478
  20    -0.019700001551235
  21     0.025149860842919
  22    0.0014015367890379
  23    0.0054197612767168
  24    1.4045526994462e-06
  25    -0.0078657970087307
  26     -0.01299664346901
  27    -5.5912721144196e-07
  28    -0.0016865825532525
  29    0.0089730475442303
  30     -0.02595996958222
  31    -0.00027082305815738
  32    -0.00027086408755886
  33    5.6514515818315e-07
  34    0.0049830734613327
  35    0.0049803516443058
  36    1.2343504167852e-06
  37    0.0042796257749125
  38    -0.019709013406224
  39      0.02517188514415
  40    0.0034090979764112
  41     0.003410874788356
  42    0.0028414731365932
  43    -0.010433493464415
  44     -0.01043527137013
  45    -0.0036315765939235
  46    0.0042775058722783
  47    -0.019707800068732
  48     0.025171479308304
  49    0.0034104789294878
  50    0.0034094608388044
  51    -0.0028422414666572
  52    -0.010433916570448
  53    -0.010434440075909
  54    0.0036297249446613
  55    -0.010240580547216
  56    -0.0057586978438153
  57      0.10519069387238
  58    0.0072831602228777
  59    0.0072853293485409
  60    -1.6457415536339e-06
  61    -0.046417427678844
  62    -0.046417984058885
  63    -1.4968908378773e-07
 Sym= A
 Ene=               2
 Spin= Alpha
 Occup=    1.00000
   1      0.12948156874171
   2     -0.69786963234143
   3       1.4567408283924
   4     -0.01206078949729
   5    -0.012060788365644
   6    -1.1518238987576e-08
   7     0.036767642604499
   8     0.036767598376043
   9    5.400263613718e-09
  10    -0.0068370154528642
  11     0.032591296397281
  12     -0.04582242020909
  13    -0.010332573082354
  14    -0.0023667698417558
  15    -2.6576544910742e-07
  16     0.025255840158082
  17     0.013752173521386
  18    1.4776905433453e-07
  19    -0.0068385809166609
  20     0.032584969245656
  21    -0.045821027404118
  22    -0.0023667752330508
  23    -0.010332576816265
  24    5.6252545352502e-07
  25     0.013752022216966
  26     0.025256248164263
  27    -2.1902670761292e-07
  28    0.0024438930308171
  29    -0.014930555734735
  30     0.047332145509931
  31    0.00038826837408402
  32    0.00038820970633086
  33    2.1592187663145e-07
  34    -0.0086258294496153
  35    -0.0086269320198918
  36    5.1910186735671e-07
  37    -0.0068407088254551
  38     0.032579806830234
  39    -0.045812112559795
  40    -0.0063503237394897
  41    -0.0063496220574446
  42    -0.0056326002468617
  43     0.019503205137461
  44     0.019502483450258
  45    0.0081333288958056
  46    -0.0068441821354009
  47     0.032578249726262
  48    -0.045812361881226
  49    -0.0063497557256065
  50    -0.0063502007631707
  51    0.0056323337560725
  52     0.019503029894348
  53     0.019502822253018
  54    -0.0081341060980561
  55     0.024544356835877
  56    -0.021077238193713
  57     -0.19539626192466
  58    -0.010149392959946
  59    -0.010148500300047
  60    -6.7594909336853e-07
  61     0.079087970508794
  62      0.07908774297066
  63    -6.3951809288197e-08
 Sym= A
 Ene=               3
 Spin= Alpha
 Occup=    1.00000
   1    -0.00062564758160312
   2    0.0056226761961786
   3    -0.018395867293049
   4        1.100394115845
   5    0.0023422789553211
   6    1.1716344830223e-10
   7     -0.28072873105563
   8    -0.0079250254928414
   9    7.1707640878891e-10
  10    0.0010992664932825
  11    -0.0013607077492365
  12    -0.0080578118537336
  13    -0.0012036084996094
  14    0.0015379916473616
  15    4.3594780560901e-10
  16    0.0049579436816551
  17    -0.0059117033084001
  18    3.838561789541e-10
  19    -0.0010509139992876
  20    0.0054789228091003
  21    -0.016074384256181
  22    0.0014691109445886
  23    -0.0016952335577043
  24    -4.1486606880708e-10
  25    -0.0056356819003379
  26    0.0061010420358214
  27    6.3784922271479e-10
  28    -0.00067556842009409
  29    0.0033197785608594
  30     -0.01232828822818
  31    -0.00086099815453649
  32    -0.00099473728217574
  33    -2.0562474241475e-10
  34    0.0039989819237505
  35    0.0043706989492541
  36    3.1001380288892e-10
  37    2.4168100613525e-05
  38      0.00205908799101
  39    -0.012066105107147
  40    7.6148725131679e-05
  41    -2.2023142714623e-05
  42    -0.0020880675520449
  43    -0.00026163813994793
  44    1.7449144359867e-05
  45    0.0079925644046251
  46    2.3172517011862e-05
  47    0.0020582709294801
  48    -0.012066151785919
  49    7.6148310210827e-05
  50    -2.2022509598878e-05
  51    0.0020880670958899
  52    -0.00026163842779836
  53    1.7448296914017e-05
  54    -0.0079925634048105
  55    0.0069616411571811
  56    -0.038237426782989
  57     0.072688603863754
  58    0.0047755830095938
  59    0.0060165128109075
  60    2.5195044141004e-09
  61    -0.014117191394879
  62    -0.016863361940678
  63    -2.0001122795139e-09
 Sym= A
 Ene=               4
 Spin= Alpha
 Occup=    1.00000
   1    -0.00062564364136981
   2    0.0056226658661094
   3    -0.018395847369643
   4    0.0023422794410766
   5       1.1003941150893
   6    6.0562086308431e-11
   7    -0.0079250248378872
   8     -0.28072872890999
   9    1.0128974947703e-09
  10    -0.0010524171795706
  11     0.005477706089041
  12    -0.016074439537907
  13    -0.0016952332597565
  14    0.0014691109636188
  15    2.6892275364572e-10
  16    0.0061010410881252
  17    -0.0056356805373034
  18    6.6330613766344e-10
  19    0.0010999868712389
  20    -0.0013601547113643
  21    -0.0080577540020731
  22    0.0015379916711912
  23    -0.001203607771623
  24    -5.6072596963444e-10
  25    -0.0059117038221086
  26    0.0049579420246724
  27    1.0515538965088e-09
  28    -0.00067652979622842
  29    0.0033190064377054
  30     -0.01232831181198
  31    -0.00099473526128379
  32    -0.00086099885713021
  33    -3.770582859784e-10
  34    0.0043706937372236
  35    0.0039989818608909
  36    6.5545289057471e-10
  37    2.4753577885311e-05
  38    0.0020595507980405
  39    -0.012066056009905
  40    -2.2021139674908e-05
  41    7.614741431714e-05
  42    -0.0020880680478745
  43    1.7446582874355e-05
  44    -0.00026163679203008
  45    0.0079925636562669
  46    2.3356875491628e-05
  47    0.0020584114027971
  48    -0.012066124359962
  49    -2.2021492130655e-05
  50    7.6148089227201e-05
  51    0.0020880667205771
  52    1.744624883831e-05
  53    -0.00026163769848582
  54    -0.0079925621428651
  55    0.0069607311793701
  56    -0.038238158477311
  57     0.072688542533811
  58    0.0060165120680663
  59    0.0047755829917578
  60    2.2961790484371e-09
  61    -0.016863357548768
  62    -0.014117193643302
  63    -3.0911745229283e-09
 Sym= A
 Ene=               5
 Spin= Alpha
 Occup=    1.00000
   1    2.5417437070479e-09
   2    -1.1498405389531e-08
   3    3.4827498782345e-08
   4    -2.9513112366588e-09
   5    -3.1088728128296e-09
   6       1.0980518399143
   7    1.1663908793274e-08
   8    1.2151513098962e-08
   9     -0.27280371877923
  10    1.2448586215874e-07
  11    9.0488791752943e-08
  12     3.95339478952e-08
  13    3.3607059333767e-09
  14    -2.8358750660655e-09
  15    9.8173877351472e-05
  16    -1.1858454109799e-08
  17    1.0914655341393e-08
  18    -0.00027909308080679
  19    5.1265416434399e-07
  20    4.0660725157085e-07
  21    5.871522566967e-08
  22    -2.8167017458655e-09
  23    3.0084500871389e-09
  24    9.8173772353069e-05
  25    1.0640158808493e-08
  26    -1.1406863116126e-08
  27    -0.00027909305046261
  28    -5.7215657030944e-07
  29    -4.8880362821371e-07
  30    9.5616605700561e-09
  31    3.5817994831072e-09
  32    3.0377745902967e-09
  33    0.00013374124729525
  34    -1.2214632528851e-08
  35    -1.1548790402493e-08
  36    -0.00037172293048466
  37    0.0015168696637611
  38    -0.0048391340501398
  39    0.0056684415436414
  40    0.00019816847701857
  41    0.0001981683698604
  42    0.00021137630910399
  43    -0.00050173739286264
  44    -0.00050173673388586
  45    -0.00043355397126378
  46    -0.0015145758311791
  47    0.0048409769406486
  48    -0.0056682564065146
  49    -0.00019816782314407
  50    -0.00019816824766183
  51    0.00021136908200758
  52    0.00050173594947847
  53    0.00050173622784899
  54    -0.00043352736551712
  55    -7.579575613599e-07
  56    -5.3680931742463e-07
  57    -1.7838408064023e-07
  58    -2.5653805727747e-10
  59    1.2877744166588e-10
  60     -0.00124093602834
  61    8.4381467777193e-10
  62    1.7468013442269e-10
  63    0.0027461846842735
 Sym= A
 Ene=               6
 Spin= Alpha
 Occup=    1.00000
   1    0.0015325044254816
   2    -0.015046936792367
   3     0.052336403764466
   4     -0.27936737866751
   5    -0.0065593979879468
   6    -5.795335135599e-09
   7       1.1218255381012
   8     0.022737701955003
   9    3.6796910153695e-09
  10    -0.0039106444214304
  11    0.0074722861313581
  12     0.018539802405752
  13    0.0035720326698846
  14    -0.0043736768217725
  15    -5.9217212211266e-09
  16    -0.014494329898841
  17     0.017079060854269
  18    4.2125701485231e-09
  19    0.0021547342536038
  20    -0.014532025656295
  21     0.046634283719484
  22    -0.0041511541019339
  23    0.0047215056705221
  24    -4.274390218908e-09
  25     0.016270537953174
  26    -0.017507719735128
  27    4.3874197885595e-09
  28    0.00063306779143116
  29    -0.0072792796926015
  30      0.03478934115617
  31    0.0024469022025417
  32    0.0028477807356991
  33    -4.5356992545169e-09
  34    -0.011566400527832
  35     -0.01272538455632
  36    3.5982500124928e-09
  37    -0.0008756964312563
  38    -0.0035281143023504
  39     0.032587152230033
  40    -0.00022043390830159
  41    0.00010481039869284
  42    0.0059461945195778
  43    0.00080192103960273
  44    -0.0001281940779285
  45     -0.02310529350509
  46    -0.00087690958969631
  47    -0.0035290637117689
  48     0.032587085998134
  49    -0.00022043433291893
  50    0.00010480939905118
  51    -0.0059461870388386
  52    0.00080192258631937
  53    -0.00012819193484508
  54     0.023105295197851
  55    -0.0079093034203456
  56     0.089533843442659
  57     -0.21233027847158
  58    -0.012967813807395
  59    -0.015964209387716
  60    -6.7593939943791e-09
  61     0.042960343114943
  62     0.050282527253298
  63    2.1261701593507e-09
 Sym= A
 Ene=               7
 Spin= Alpha
 Occup=    0.00000
   1    0.0015325059557405
   2    -0.015046935775649
   3     0.052336384006111
   4    -0.0065593925931868
   5     -0.27936738063332
   6    -6.4717081268815e-09
   7     0.022737684185101
   8       1.1218255299081
   9    4.012401224938e-09
  10    0.0021533796181965
  11     -0.01453308525501
  12     0.046634207020224
  13    0.0047214924486836
  14    -0.0041511441477969
  15    -6.3551949844118e-09
  16    -0.017507710615207
  17     0.016270518287732
  18    4.9832803809875e-09
  19    -0.0039088719505908
  20    0.0074736697084544
  21     0.018539853517041
  22    -0.0043736768370471
  23    0.0035720404442097
  24    -5.4721639857153e-09
  25     0.017079049960126
  26    -0.014494323893643
  27    4.2462240677776e-09
  28    0.00062923918530641
  29    -0.0072822702907943
  30      0.03478914046612
  31    0.0028477818667421
  32    0.0024468929730089
  33    -4.4942883165565e-09
  34    -0.012725371607776
  35    -0.011566381812531
  36    3.610341455806e-09
  37    -0.00087559475784741
  38      -0.0035280342656
  39     0.032587139398771
  40    0.00010481457258222
  41    -0.00022043653623466
  42    0.0059461915376647
  43    -0.00012819972409573
  44    0.00080192225871803
  45     -0.02310527040706
  46    -0.00087708753963871
  47    -0.0035291992340699
  48     0.032587061240278
  49    0.00010481356264923
  50    -0.00022043809015219
  51    -0.0059461800302959
  52    -0.00012819791595182
  53    0.00080192455652873
  54     0.023105271790076
  55    -0.0079090921695425
  56     0.089533912882749
  57     -0.21233011876103
  58    -0.015964213237854
  59    -0.012967814746713
  60    -3.6659787383511e-09
  61     0.050282530846377
  62     0.042960344250625
  63     3.83253764405e-09
 Sym= A
 Ene=               8
 Spin= Alpha
 Occup=    0.00000
   1     2.54224016172e-09
   2    5.2435356364244e-09
   3    -1.43195162698e-08
   4    6.4063331888503e-11
   5    -2.8514987476061e-10
   6     -0.27280796919124
   7    -4.1037077704613e-09
   8    -4.2711396650857e-09
   9       1.0990878444411
  10    -8.2840848036344e-08
  11    -5.9522820660822e-08
  12    -1.9614186095845e-08
  13    -1.6974735517793e-09
  14    2.2976163144457e-10
  15    -0.00032523341911098
  16    4.7579125350967e-09
  17    -2.8384155036385e-09
  18    0.00093009207966562
  19    -4.6755499371658e-08
  20    -3.7678399408683e-08
  21    -1.6272261743424e-08
  22    5.1409467074267e-10
  23    3.1837681678508e-10
  24    -0.0003252330332674
  25    -1.9313803213637e-09
  26    2.8413920065645e-09
  27    0.00093009212868358
  28    7.0648069460594e-07
  29    5.6601976213101e-07
  30    1.7626051877469e-08
  31    -2.519890230773e-09
  32    -5.9665169668747e-10
  33    -0.0004008677732223
  34    3.8009438860271e-09
  35    2.6230060887617e-09
  36     0.001158956832415
  37    -0.0043045036929792
  38     0.015547193847247
  39    -0.019866563865546
  40    -0.00048507496576163
  41    -0.00048507641542193
  42    -0.00046346947129432
  43    0.0013512733370048
  44    0.0013512737114855
  45     0.001102425009737
  46    0.0043037408376631
  47     -0.01554776476288
  48     0.019866488090018
  49    0.0004850754054688
  50    0.00048507604843268
  51    -0.00046346571470088
  52    -0.0013512714622066
  53    -0.0013512712085272
  54    0.0011024204354367
  55    3.3130932866988e-07
  56    2.4676724884845e-07
  57    5.8278672658327e-08
  58    -1.1124403314605e-09
  59    -1.0572531642191e-09
  60    0.0029963780067126
  61    -3.5091511832799e-12
  62    -2.7052778674274e-09
  63    -0.0073221427483582
 Sym= A
 Ene=               9
 Spin= Alpha
 Occup=    0.00000
   1    -0.001375297424649
   2    0.0051813354160012
   3    -0.0058677726159107
   4    0.0010765714267052
   5    -0.00033813617292011
   6    -1.8393517041962e-07
   7    -0.0026779956695604
   8    0.0017378299439233
   9    1.3371016701235e-07
  10       1.2505318332576
  11     -0.54795994434995
  12      0.13267791732463
  13    0.0013048048351812
  14    -0.0013048454514969
  15    5.7618452602123e-09
  16    -0.0037893932794118
  17    0.0037892883977743
  18    -1.5432619203694e-08
  19    0.00059390281317319
  20    -0.0023970606066505
  21    0.0053807446931291
  22    -9.2024656610474e-05
  23    9.0111452668096e-05
  24    8.9273289257483e-07
  25    0.0011799408100141
  26    -0.0011492630944301
  27    3.6412619929339e-07
  28    -0.0013722510046001
  29    0.0051790689858286
  30    -0.0058686371421821
  31    0.00034029913956145
  32    -0.0010751989851256
  33    6.9469946533586e-07
  34    -0.0017320426835634
  35    0.0026687378828587
  36    -2.5807897611603e-07
  37    -0.001376144695529
  38    0.0051781841834932
  39    -0.0058591410279222
  40    0.00071236771333925
  41    -0.00070350261357649
  42    -0.00052400728964668
  43    -0.0021998190012678
  44    0.0021967515326587
  45    0.00066271238651006
  46    -0.0013765917410416
  47    0.0051804548246562
  48    -0.0058598845229195
  49    0.00071178487612334
  50    -0.00070415093601802
  51    0.00052070188353329
  52    -0.0021996403201515
  53    0.0021971314845654
  54    -0.00066235420325964
  55    -0.0022108179315941
  56    0.0091923314648175
  57     -0.01943453324551
  58    0.0025365562054728
  59    -0.0025364659767572
  60    -2.0510326353674e-06
  61    -0.010330831384752
  62     0.010332189964531
  63    -4.8252697695567e-07
 Sym= A
 Ene=              10
 Spin= Alpha
 Occup=    0.00000
   1    0.0042758325372874
   2    -0.019696861827583
   3      0.02514058821194
   4    -0.0054203795715681
   5    0.0014028474080845
   6    -1.5675948439405e-07
   7     0.012993372156867
   8    -0.0078612489126195
   9    1.1359353688965e-07
  10      -0.5470752010987
  11       1.6926458643248
  12     -0.70994105260332
  13    -0.0065984685187024
  14    0.0065984364095857
  15    9.2165444634741e-09
  16      0.01978961703434
  17    -0.019789712102639
  18    -1.6027463664871e-08
  19    -0.0016890982517422
  20    0.0089826601649693
  21    -0.025969136395016
  22    0.00027066646164128
  23    -0.00027232819888091
  24    7.7960189688588e-07
  25    -0.0049712151795756
  26    0.0049973716883856
  27    3.0085969715971e-07
  28    0.0042814252928712
  29    -0.019696888548909
  30     0.025140034633506
  31    -0.0014009712253305
  32    0.0054215706413568
  33    6.0721306946685e-07
  34    0.0078661711689648
  35    -0.013001263507808
  36    -2.2837284625924e-07
  37    0.0042758113060749
  38    -0.019699148095692
  39      0.02514789371191
  40    -0.0034072637488604
  41    0.0034149490684284
  42    0.0028392107526875
  43     0.010434171101194
  44    -0.010436836041625
  45    -0.0036307244429202
  46    0.0042754215286093
  47    -0.019697198392294
  48     0.025147255163415
  49    -0.0034077711878335
  50    0.0034143855427453
  51    -0.0028420890253435
  52     0.010434327681613
  53    -0.010436508229056
  54    0.0036310548521192
  55    -0.010240266370434
  56    -0.0057737467193278
  57      0.10522925846251
  58    -0.0072846268722653
  59    0.0072847630399672
  60    -1.776475361944e-06
  61     0.046419778906534
  62     -0.04641866034755
  63    -3.9662872115366e-07
 Sym= A
 Ene=              11
 Spin= Alpha
 Occup=    0.00000
   1    -0.006837951477968
   2     0.032588124833901
   3    -0.045824643337445
   4     0.010332362561548
   5    -0.0023662374927777
   6    -7.953127632358e-08
   7    -0.025257644650493
   8     0.013753865312687
   9    5.9141532212566e-08
  10      0.12948155983337
  11     -0.69786990912049
  12       1.4567392322141
  13     0.012060578178473
  14    -0.012060592585252
  15    -1.0825954240538e-08
  16    -0.036766708488232
  17     0.036766676403887
  18    5.1363183582624e-09
  19    0.0024450624724972
  20    -0.014925008658652
  21     0.047328440917813
  22    -0.00038831369250539
  23    0.00038764777178016
  24    3.0205432919795e-07
  25    0.0086307044548496
  26    -0.0086199554391148
  27    1.3712073936662e-07
  28    -0.0068447529070656
  29     0.032581057324069
  30    -0.045825316868864
  31     0.002367029623849
  32    -0.010331883621976
  33    2.3284219130304e-07
  34    -0.013751856917027
  35     0.025254411629012
  36    -8.2399713941466e-08
  37    -0.0068408743879972
  38     0.032584968074516
  39    -0.045821876648402
  40    0.0063511026680995
  41    -0.0063479372419209
  42    -0.0056335486416102
  43    -0.019502947462285
  44      0.01950184196449
  45    0.0081337117669231
  46    -0.0068444820838693
  47     0.032583032424639
  48    -0.045822261294668
  49    0.0063508927303067
  50    -0.0063481634532566
  51    0.0056324092163729
  52    -0.019502883706206
  53     0.019501972210662
  54    -0.0081335885944242
  55     0.024542235196218
  56    -0.021085224835548
  57     -0.19538041151121
  58       0.0101488105579
  59    -0.010148745813484
  60    -7.3077972947016e-07
  61    -0.079087026171311
  62     0.079087493044881
  63    -1.6526663896549e-07
 Sym= A
 Ene=              12
 Spin= Alpha
 Occup=    0.00000
   1    -0.0010980039901002
   2    0.0013617043455071
   3    0.0080579036109877
   4    -0.001203615622338
   5    -0.0015379972437528
   6    -8.7404234083589e-10
   7    0.0049579584275076
   8    0.0059117201812245
   9    6.6540472579138e-10
  10    0.00062575477443682
  11    -0.0056226157128302
  12     0.018395919497536
  13       1.1003941191502
  14    -0.0023422822794788
  15    -9.2634033250083e-10
  16     -0.28072874383343
  17    0.0079250340040763
  18    8.072652000206e-10
  19    0.00067482122843771
  20    -0.0033203772008091
  21     0.012328308270889
  22    -0.00086100203100002
  23    0.00099473993167574
  24    -5.9633775789437e-12
  25    0.0039989954765629
  26    -0.0043707082041513
  27    5.1707709120991e-10
  28    0.0010491820317708
  29    -0.0054803276313777
  30     0.016074353653615
  31    0.0014691182108376
  32    0.0016952427305589
  33    -1.2241486613358e-10
  34    -0.0056356961877853
  35    -0.0061010661463054
  36    8.8053451266914e-10
  37    -2.1856488302869e-05
  38    -0.0020572417473675
  39     0.012066266121308
  40    7.6150989793056e-05
  41    2.2023572064098e-05
  42    0.0020880730242443
  43    -0.0002616440739101
  44    -1.7451275393483e-05
  45    -0.0079925788572506
  46    -2.2288826151378e-05
  47    -0.0020575881613206
  48     0.012066242019749
  49    7.6151116002616e-05
  50    2.2022625895739e-05
  51    -0.0020880726365445
  52    -0.00026164381701724
  53    -1.7450374083298e-05
  54    0.0079925775938949
  55    -0.0069631001411339
  56     0.038236292588988
  57    -0.072688795387765
  58    0.0047755913008177
  59    -0.0060165237303952
  60    -1.6357154215293e-09
  61    -0.014117198725848
  62       0.0168633667973
  63    -6.8739492845609e-10
 Sym= A
 Ene=              13
 Spin= Alpha
 Occup=    0.00000
   1    -0.0010499759505392
   2     0.005479672232773
   3    -0.016074359196874
   4    0.0016952373218172
   5    0.0014691160889982
   6    3.5636914762479e-10
   7    -0.0061010489024112
   8    -0.005635687702266
   9    2.4138419670166e-10
  10    -0.00062570150133016
  11    0.0056226551619907
  12    -0.018395898159493
  13    -0.0023422773887611
  14       1.1003941159634
  15    4.9389202319595e-10
  16    0.0079250194105216
  17     -0.28072873014616
  18    -4.2250609597396e-11
  19    -0.00067886254916397
  20    0.0033172269774343
  21    -0.012328470773415
  22    0.00099473714793598
  23    -0.00086099660769881
  24    -6.3279992222479e-11
  25    -0.0043706976283372
  26    0.0039989751448473
  27    9.0156045895385e-11
  28    0.0010983582809391
  29    -0.0013614738347277
  30    -0.0080578736118025
  31    -0.0015379936582649
  32    -0.0012036102882242
  33     -1.5371185403e-10
  34    0.0059117071205421
  35     0.004957947389681
  36    6.7949894523351e-11
  37    2.5952042186244e-05
  38    0.0020605786706949
  39    -0.012066036455015
  40    2.2018769061959e-05
  41    7.614954839814e-05
  42    -0.002088070362426
  43    -1.7442494839713e-05
  44    -0.00026164063419497
  45    0.0079925686155958
  46    2.5564767937694e-05
  47    0.0020602541115497
  48    -0.012066055182682
  49    2.201893692285e-05
  50    7.6150214771721e-05
  51    0.0020880695520969
  52    -1.7442892708742e-05
  53    -0.00026164146599211
  54    -0.0079925673665452
  55    0.0069628041496111
  56    -0.038236458730157
  57      0.07268864487234
  58    -0.0060165230343225
  59    0.0047755884636308
  60    1.977291119903e-09
  61     0.016863363918484
  62    -0.014117194019986
  63    -1.1394839603157e-09
 Sym= A
 Ene=              14
 Spin= Alpha
 Occup=    0.00000
   1    4.902936354577e-07
   2    3.8923745989607e-07
   3    6.0410513339962e-08
   4    -3.467259828423e-09
   5    -3.4247661702935e-09
   6    9.8173367159972e-05
   7    1.3304542842593e-08
   8    1.3489297235183e-08
   9    -0.0002790933927972
  10    2.7315552279468e-09
  11    -1.1704283285015e-08
  12    3.7837162836294e-08
  13    3.8303870796595e-09
  14    -3.455086884204e-09
  15       1.0980518391968
  16    -1.3917042940972e-08
  17    1.329662439849e-08
  18      -0.2728037159056
  19    1.1745448871395e-07
  20    8.4318275455847e-08
  21    4.3893160208527e-08
  22    -3.5086417663005e-09
  23    3.5001814377551e-09
  24    0.00013374065884273
  25    1.3175139166309e-08
  26    -1.3628123801269e-08
  27    -0.00037172320475414
  28    1.0699853176141e-07
  29    7.5737720647365e-08
  30    4.0615890689394e-08
  31    4.0361441220577e-09
  32    3.6614032221956e-09
  33    9.817300114064e-05
  34    -1.3606911124301e-08
  35    -1.3266488376713e-08
  36    -0.00027909049549861
  37    0.0015176576259061
  38    -0.0048385335272561
  39    0.0056684860426434
  40    -0.0001981687170671
  41    0.00019816847464111
  42    0.00021137738408191
  43    0.00050173298656044
  44    -0.00050173715243928
  45    -0.00043355609422335
  46    -0.0015153974011755
  47    0.0048403506031717
  48    -0.0056682971986593
  49    0.00019816874443347
  50    -0.00019816829694375
  51    0.00021136830625133