[Molden Format]
made by pyscf v[2.0.1]
[Atoms] (AU)
He   1   2     0.00000000000000     0.00000000000000     0.00000000000000
He   2   2     0.00000000000000     3.77945224913012     0.00000000000000
He   3   2     3.77945224913012     0.00000000000000     0.00000000000000
He   4   2     3.77945224913012     3.77945224913012     0.00000000000000
He   5   2     0.00000000000000     0.00000000000000     9.44863062282531
He   6   2     0.00000000000000     3.77945224913012     9.44863062282531
He   7   2     3.77945224913012     0.00000000000000     9.44863062282531
He   8   2     3.77945224913012     3.77945224913012     9.44863062282531
[GTO]
1 0
 s    3 1.00
             38.421634   0.040139739345788
               5.77803    0.26124609704061
              1.241774    0.79318462463025
 s    1 1.00
              0.297964                   1

2 0
 s    3 1.00
             38.421634   0.040139739345788
               5.77803    0.26124609704061
              1.241774    0.79318462463025
 s    1 1.00
              0.297964                   1

3 0
 s    3 1.00
             38.421634   0.040139739345788
               5.77803    0.26124609704061
              1.241774    0.79318462463025
 s    1 1.00
              0.297964                   1

4 0
 s    3 1.00
             38.421634   0.040139739345788
               5.77803    0.26124609704061
              1.241774    0.79318462463025
 s    1 1.00
              0.297964                   1

5 0
 s    3 1.00
             38.421634   0.040139739345788
               5.77803    0.26124609704061
              1.241774    0.79318462463025
 s    1 1.00
              0.297964                   1

6 0
 s    3 1.00
             38.421634   0.040139739345788
               5.77803    0.26124609704061
              1.241774    0.79318462463025
 s    1 1.00
              0.297964                   1

7 0
 s    3 1.00
             38.421634   0.040139739345788
               5.77803    0.26124609704061
              1.241774    0.79318462463025
 s    1 1.00
              0.297964                   1

8 0
 s    3 1.00
             38.421634   0.040139739345788
               5.77803    0.26124609704061
              1.241774    0.79318462463025
 s    1 1.00
              0.297964                   1

[5d]
[7f]
[9g]

[MO]
 Sym= A
 Ene=               0
 Spin= Alpha
 Occup=    1.00000
   1     -0.28441191785932
   2     -0.24507725236555
   3     -0.28441191785932
   4     -0.24507725236555
   5     -0.28441191785932
   6     -0.24507725236555
   7     -0.28441191785932
   8     -0.24507725236555
   9    8.8300171540494e-07
  10    -6.7001314652674e-07
  11    8.8295047701945e-07
  12    -6.7005747202425e-07
  13    8.8294232837259e-07
  14    -6.7006452158876e-07
  15    8.8289109105826e-07
  16    -6.7010885020444e-07
 Sym= A
 Ene=               1
 Spin= Alpha
 Occup=    1.00000
   1     0.028652716976682
   2     0.024788123657263
   3     -0.41905521369577
   4     -0.36253429176576
   5      0.41905521369577
   6      0.36253429176576
   7    -0.028652716976683
   8    -0.024788123657265
   9    -7.4912847496981e-08
  10    7.049634459343e-08
  11    1.1338071117865e-06
  12    -9.9799390592878e-07
  13    -1.1340013857996e-06
  14    9.9782650081033e-07
  15    7.4718573322324e-08
  16    -7.0663750458613e-08
 Sym= A
 Ene=               2
 Spin= Alpha
 Occup=    1.00000
   1      0.41905521369575
   2      0.36253429176578
   3     0.028652716976686
   4     0.024788123657264
   5    -0.028652716976683
   6     -0.02478812365726
   7     -0.41905521369575
   8     -0.36253429176578
   9    -1.1252795288717e-06
  10    1.0053719474849e-06
  11    -7.554138639135e-08
  12    6.9952549276995e-08
  13    7.5365604775104e-08
  14    -7.0104019968236e-08
  15    1.1251037470624e-06
  16    -1.0055234183963e-06
 Sym= A
 Ene=               3
 Spin= Alpha
 Occup=    1.00000
   1     -0.30744332166913
   2     -0.26994873603241
   3      0.30744332166913
   4      0.26994873603241
   5      0.30744332166912
   6       0.2699487360324
   7     -0.30744332166912
   8      -0.2699487360324
   9    7.2595525977247e-07
  10    -7.4505657073619e-07
  11    -7.2595525997138e-07
  12    7.4505657086918e-07
  13    -7.2595525978628e-07
  14    7.4505657102988e-07
  15    7.2595525954548e-07
  16    -7.4505657093149e-07
 Sym= A
 Ene=               4
 Spin= Alpha
 Occup=    1.00000
   1      0.55761017573074
   2     -0.50286328293605
   3      0.55761017573072
   4     -0.50286328293603
   5      0.55761017573063
   6     -0.50286328293593
   7      0.55761017573064
   8     -0.50286328293595
   9    1.1685682584283e-07
  10    1.1426205671066e-06
  11    1.1685682790735e-07
  12    1.1426205650883e-06
  13    1.1685682750102e-07
  14    1.142620565264e-06
  15    1.1685682622071e-07
  16    1.142620567236e-06
 Sym= A
 Ene=               5
 Spin= Alpha
 Occup=    1.00000
   1      0.79109617857785
   2     -0.82392934083624
   3     -0.20278176123742
   4      0.21119788894733
   5      0.20278176123737
   6     -0.21119788894728
   7      -0.7910961785779
   8      0.82392934083629
   9    -1.9543820756702e-08
  10    1.7997233757513e-06
  11    -3.3736205452299e-09
  12    -4.5259202694538e-07
  13    3.3733037761508e-09
  14    4.5259240485522e-07
  15    1.9544138083369e-08
  16    -1.7997237539037e-06
 Sym= A
 Ene=               6
 Spin= Alpha
 Occup=    1.00000
   1     -0.20278176123735
   2      0.21119788894728
   3     -0.79109617857784
   4      0.82392934083619
   5      0.79109617857792
   6     -0.82392934083626
   7      0.20278176123743
   8     -0.21119788894735
   9    7.6637832907155e-10
  10    -4.5690392144561e-07
  11    3.0661610326299e-09
  12    -1.7825618136208e-06
  13    -3.0667919867092e-09
  14    1.782562565976e-06
  15    -7.6574704813009e-10
  16    4.5690316877823e-07
 Sym= A
 Ene=               7
 Spin= Alpha
 Occup=    1.00000
   1      0.60560713604762
   2     -0.72209390377538
   3     -0.60560713604764
   4      0.72209390377539
   5     -0.60560713604764
   6      0.72209390377539
   7      0.60560713604762
   8     -0.72209390377538
   9    -1.6960424428086e-07
  10    1.5486500889444e-06
  11    1.6960276288202e-07
  12    -1.54864854597e-06
  13    1.6960408812159e-07
  14    -1.5486499266162e-06
  15    -1.6960260712424e-07
  16    1.5486483842764e-06
 Sym= A
 Ene=               8
 Spin= Alpha
 Occup=    0.00000
   1    8.8293306348011e-07
   2    -6.7007296900048e-07
   3    8.8320661739132e-07
   4    -6.6983631160034e-07
   5    8.8293808081631e-07
   6    -6.7006862870554e-07
   7    8.8321163463128e-07
   8    -6.6983197098244e-07
   9     -0.28441191785931
  10     -0.24507725236554
  11     -0.28441191785934
  12     -0.24507725236556
  13     -0.28441191785933
  14     -0.24507725236555
  15     -0.28441191785931
  16     -0.24507725236554
 Sym= A
 Ene=               9
 Spin= Alpha
 Occup=    0.00000
   1    -7.6977493490461e-07
   2    6.7544978115546e-07
   3    -8.2895969839334e-07
   4    7.4398002204106e-07
   5    8.2901441977219e-07
   6    -7.4393286854865e-07
   7    7.6982965627822e-07
   8    -6.7540262767349e-07
   9      0.28406043153999
  10      0.24574720466737
  11      0.30941545137413
  12      0.26768241477305
  13     -0.30941545137413
  14     -0.26768241477305
  15     -0.28406043153999
  16     -0.24574720466737
 Sym= A
 Ene=              10
 Spin= Alpha
 Occup=    0.00000
   1    -8.3542491237084e-07
   2    7.3838682290277e-07
   3    7.6395106893184e-07
   4    -6.8048832328756e-07
   5    -7.6389962308625e-07
   6    6.8053265411074e-07
   7    8.3547635791382e-07
   8    -7.3834249128607e-07
   9      0.30941545137415
  10      0.26768241477304
  11     -0.28406043153997
  12     -0.24574720466738
  13      0.28406043153998
  14      0.24574720466739
  15     -0.30941545137415
  16     -0.26768241477303
 Sym= A
 Ene=              11
 Spin= Alpha
 Occup=    0.00000
   1    -7.2595526048074e-07
   2    7.4505657104504e-07
   3    7.2595525990416e-07
   4    -7.4505657154336e-07
   5    7.2595525938643e-07
   6    -7.4505657199005e-07
   7    -7.2595526002142e-07
   8    7.4505657144008e-07
   9      0.30744332166914
  10      0.26994873603241
  11     -0.30744332166911
  12     -0.26994873603239
  13     -0.30744332166911
  14      -0.2699487360324
  15      0.30744332166913
  16      0.26994873603241
 Sym= A
 Ene=              12
 Spin= Alpha
 Occup=    0.00000
   1    1.1685682750491e-07
   2    1.142620565644e-06
   3    1.1685682645517e-07
   4    1.1426205665802e-06
   5    1.168568271367e-07
   6    1.1426205657168e-06
   7    1.1685682630877e-07
   8    1.1426205668925e-06
   9      0.55761017573081
  10     -0.50286328293615
  11      0.55761017573056
  12     -0.50286328293585
  13       0.5576101757306
  14     -0.50286328293589
  15      0.55761017573076
  16     -0.50286328293609
 Sym= A
 Ene=              13
 Spin= Alpha
 Occup=    0.00000
   1    2.6978897280354e-09
   2    -1.8381470365845e-06
   3    4.9255414503662e-09
   4    -8.0771093838783e-08
   5    -4.9242877370225e-09
   6    8.0769598982656e-08
   7    -2.6991433593235e-09
   8    1.838148531354e-06
   9     -0.81597957139428
  10       0.8498454784642
  11    -0.033629533422804
  12     0.035025272597703
  13     0.033629533422838
  14    -0.035025272597734
  15      0.81597957139431
  16     -0.84984547846423
 Sym= A
 Ene=              14
 Spin= Alpha
 Occup=    0.00000
   1    -4.144329844569e-09
   2    7.9957434805693e-08
   3    1.9670540249225e-08
   4    -1.8558242740935e-06
   5    -1.9669608544523e-08
   6    1.8558231631559e-06
   7    4.1433979234155e-09
   8    -7.9956323655459e-08
   9     0.033629533422803
  10    -0.035025272597698
  11      -0.8159795713943
  12      0.84984547846426
  13      0.81597957139429
  14     -0.84984547846425
  15    -0.033629533422839
  16     0.035025272597734
 Sym= A
 Ene=              15
 Spin= Alpha
 Occup=    0.00000
   1    -1.6960269298925e-07
   2    1.5486483478833e-06
   3    1.6960305774721e-07
   4    -1.548648729144e-06
   5    1.6960212806537e-07
   6    -1.5486477605403e-06
   7    -1.6960249081889e-07
   8    1.5486481372715e-06
   9      0.60560713604753
  10      -0.7220939037753
  11     -0.60560713604774
  12      0.72209390377548
  13     -0.60560713604772
  14      0.72209390377547
  15      0.60560713604754
  16      -0.7220939037753
