[Molden Format]
made by pyscf v[2.0.1]
[Atoms] (AU)
He   1   2     0.00000000000000     0.00000000000000     0.00000000000000
He   2   2     0.00000000000000     3.77945224913012     0.00000000000000
He   3   2     3.77945224913012     0.00000000000000     0.00000000000000
He   4   2     3.77945224913012     3.77945224913012     0.00000000000000
He   5   2     0.00000000000000     0.00000000000000     9.44863062282531
He   6   2     0.00000000000000     3.77945224913012     9.44863062282531
He   7   2     3.77945224913012     0.00000000000000     9.44863062282531
He   8   2     3.77945224913012     3.77945224913012     9.44863062282531
[GTO]
1 0
 s    3 1.00
             38.421634   0.040139739345788
               5.77803    0.26124609704061
              1.241774    0.79318462463025
 s    1 1.00
              0.297964                   1

2 0
 s    3 1.00
             38.421634   0.040139739345788
               5.77803    0.26124609704061
              1.241774    0.79318462463025
 s    1 1.00
              0.297964                   1

3 0
 s    3 1.00
             38.421634   0.040139739345788
               5.77803    0.26124609704061
              1.241774    0.79318462463025
 s    1 1.00
              0.297964                   1

4 0
 s    3 1.00
             38.421634   0.040139739345788
               5.77803    0.26124609704061
              1.241774    0.79318462463025
 s    1 1.00
              0.297964                   1

5 0
 s    3 1.00
             38.421634   0.040139739345788
               5.77803    0.26124609704061
              1.241774    0.79318462463025
 s    1 1.00
              0.297964                   1

6 0
 s    3 1.00
             38.421634   0.040139739345788
               5.77803    0.26124609704061
              1.241774    0.79318462463025
 s    1 1.00
              0.297964                   1

7 0
 s    3 1.00
             38.421634   0.040139739345788
               5.77803    0.26124609704061
              1.241774    0.79318462463025
 s    1 1.00
              0.297964                   1

8 0
 s    3 1.00
             38.421634   0.040139739345788
               5.77803    0.26124609704061
              1.241774    0.79318462463025
 s    1 1.00
              0.297964                   1

[5d]
[7f]
[9g]

[MO]
 Sym= A
 Ene=               0
 Spin= Alpha
 Occup=    1.00000
   1     -0.28268625164356
   2     -0.24663109155405
   3     -0.28268625072196
   4     -0.24663109388585
   5     -0.28268625048526
   6     -0.24663109413197
   7     -0.28268625108789
   8     -0.24663109213203
   9    8.7644755773716e-07
  10    -6.6024976013107e-07
  11    8.7644755685294e-07
  12    -6.6024975637008e-07
  13    8.7644755758832e-07
  14    -6.6024975504338e-07
  15    8.7644755660066e-07
  16    -6.6024975928273e-07
 Sym= A
 Ene=               1
 Spin= Alpha
 Occup=    1.00000
   1     0.028566772793914
   2     0.024877570689518
   3     -0.41779824071537
   4     -0.36384248416553
   5      0.41779823921469
   6      0.36384248404048
   7    -0.028566771425291
   8    -0.024877570445681
   9    -7.6749610035943e-08
  10    6.7837247326905e-08
  11    1.122487743656e-06
  12    -9.9214155797035e-07
  13    -1.1224877414151e-06
  14    9.9214155512787e-07
  15    7.6749607494087e-08
  16    -6.7837244419695e-08
 Sym= A
 Ene=               2
 Spin= Alpha
 Occup=    1.00000
   1      0.41779823858803
   2      0.36384248480031
   3     0.028566772607798
   4     0.024877570801345
   5    -0.028566771087934
   6    -0.024877570878262
   7     -0.41779823986588
   8     -0.36384248494087
   9    -1.1224877415587e-06
  10    9.9214155334943e-07
  11    -7.6749609083878e-08
  12    6.7837246742576e-08
  13    7.6749607465267e-08
  14    -6.7837242364027e-08
  15    1.1224877437222e-06
  16    -9.921415563418e-07
 Sym= A
 Ene=               3
 Spin= Alpha
 Occup=    1.00000
   1     -0.30785327738866
   2     -0.26945978230393
   3      0.30785327554947
   4      0.26945978090285
   5      0.30785327668781
   6      0.26945978224207
   7     -0.30785327597054
   8     -0.26945978180893
   9    7.233174477403e-07
  10    -7.4282104466233e-07
  11    -7.2331744353111e-07
  12    7.4282104073234e-07
  13    -7.23317446781e-07
  14    7.4282104342727e-07
  15    7.2331744471298e-07
  16    -7.4282104135735e-07
 Sym= A
 Ene=               4
 Spin= Alpha
 Occup=    1.00000
   1      0.55848700058017
   2     -0.50210302149403
   3      0.55848700100197
   4     -0.50210302212083
   5      0.55848700301453
   6     -0.50210302410764
   7      0.55848700053887
   8      -0.5021030212846
   9    1.106235948037e-07
  10    1.1416315238788e-06
  11    1.1062359502718e-07
  12    1.1416315248369e-06
  13    1.1062359494556e-07
  14    1.1416315288692e-06
  15    1.1062359518302e-07
  16    1.1416315236741e-06
 Sym= A
 Ene=               5
 Spin= Alpha
 Occup=    1.00000
   1      0.79172269571725
   2     -0.82338553259102
   3     -0.20294235655107
   4      0.21105849489081
   5      0.20294235612658
   6     -0.21105849452212
   7     -0.79172269645857
   8      0.82338553268279
   9    -1.5679432785241e-08
  10    1.7890514347197e-06
  11    4.0191106742448e-09
  12    -4.5858773055666e-07
  13    -4.0191106237894e-09
  14    4.585877297318e-07
  15    1.5679433958172e-08
  16    -1.7890514368328e-06
 Sym= A
 Ene=               6
 Spin= Alpha
 Occup=    1.00000
   1     -0.20294235717292
   2      0.21105849510657
   3     -0.79172269632936
   4       0.8233855335544
   5      0.79172269521248
   6      -0.8233855322715
   7      0.20294235599674
   8     -0.21105849387788
   9    4.0191114158973e-09
  10    -4.5858773283701e-07
  11    1.5679433414219e-08
  12    -1.7890514374748e-06
  13    -1.5679434086229e-08
  14    1.7890514354654e-06
  15    -4.0191110826863e-09
  16    4.5858772945339e-07
 Sym= A
 Ene=               7
 Spin= Alpha
 Occup=    1.00000
   1      0.60539884384457
   2     -0.72227650728426
   3     -0.60539884276965
   4      0.72227650585573
   5       -0.605398843155
   6      0.72227650552148
   7      0.60539884347079
   8     -0.72227650760918
   9    -1.7051113290467e-07
  10    1.5469188325577e-06
  11    1.7051113405964e-07
  12    -1.5469188307715e-06
  13    1.7051113542895e-07
  14    -1.5469188322376e-06
  15    -1.7051113219969e-07
  16    1.546918832288e-06
 Sym= A
 Ene=               8
 Spin= Alpha
 Occup=    0.00000
   1    8.7644755516953e-07
   2    -6.6024975581207e-07
   3    8.7644755980683e-07
   4    -6.6024975953923e-07
   5    8.7644755947523e-07
   6    -6.6024975843867e-07
   7    8.7644755573822e-07
   8    -6.6024975505827e-07
   9     -0.28268625015312
  10     -0.24663109215079
  11      -0.2826862512944
  12     -0.24663109409311
  13     -0.28268625070873
  14     -0.24663109470471
  15     -0.28268624964026
  16     -0.24663109268118
 Sym= A
 Ene=               9
 Spin= Alpha
 Occup=    0.00000
   1    -7.6088863965738e-07
   2    6.7253227710764e-07
   3    -8.2880499206756e-07
   4    7.3256200621425e-07
   5    8.288049858652e-07
   6    -7.3256200074033e-07
   7    7.6088864509324e-07
   8    -6.7253228161916e-07
   9      0.28320837858361
  10      0.24663397426709
  11      0.30848734699746
  12      0.26864833960069
  13     -0.30848734467584
  14     -0.26864833708239
  15     -0.28320838039003
  16     -0.24663397724879
 Sym= A
 Ene=              10
 Spin= Alpha
 Occup=    0.00000
   1    -8.2880498776313e-07
   2    7.3256200404322e-07
   3    7.608886412558e-07
   4    -6.7253227798605e-07
   5    -7.6088864332916e-07
   6    6.725322817894e-07
   7    8.2880498870948e-07
   8    -7.3256200286876e-07
   9       0.3084873462363
  10      0.26864833723857
  11     -0.28320837869938
  12     -0.24663397570055
  13      0.28320838083269
  14      0.24663397523456
  15     -0.30848734565341
  16     -0.26864833921943
 Sym= A
 Ene=              11
 Spin= Alpha
 Occup=    0.00000
   1    -7.2331745289333e-07
   2    7.4282105038363e-07
   3    7.2331744102959e-07
   4    -7.4282103926163e-07
   5    7.2331744562153e-07
   6    -7.4282104543933e-07
   7    -7.2331744417882e-07
   8    7.4282104045594e-07
   9      0.30785327966498
  10      0.26945978275879
  11     -0.30785327479354
  12     -0.26945978033001
  13     -0.30785327724847
  14     -0.26945978117262
  15      0.30785327531762
  16      0.26945978129253
 Sym= A
 Ene=              12
 Spin= Alpha
 Occup=    0.00000
   1    1.1062359532356e-07
   2    1.141631532639e-06
   3    1.1062359376322e-07
   4    1.1416315109681e-06
   5    1.1062359532437e-07
   6    1.1416315354218e-06
   7    1.1062359167411e-07
   8    1.1416315237211e-06
   9      0.55848700470459
  10     -0.50210302627024
  11      0.55848699516511
  12     -0.50210301471012
  13      0.55848700618901
  14     -0.50210302722025
  15      0.55848700016112
  16      -0.5021030198605
 Sym= A
 Ene=              13
 Spin= Alpha
 Occup=    0.00000
   1    1.6172620055519e-08
   2    -1.8453248303772e-06
   3    6.6653489632467e-10
   4    -7.6052653322307e-08
   5    -6.6653388064372e-10
   6    7.6052659557547e-08
   7    -1.6172621366548e-08
   8    1.845324838868e-06
   9     -0.81662579380291
  10      0.84928456371351
  11    -0.033656165219378
  12     0.035002153593603
  13     0.033656168316214
  14    -0.035002156879495
  15      0.81662579783277
  16     -0.84928456617917
 Sym= A
 Ene=              14
 Spin= Alpha
 Occup=    0.00000
   1    -6.6653458660722e-10
   2    7.6052647766653e-08
   3    1.6172619615179e-08
   4    -1.8453248424693e-06
   5    -1.6172621771318e-08
   6    1.845324826203e-06
   7    6.6653127841587e-10
   8    -7.6052662606828e-08
   9     0.033656162816706
  10    -0.035002151550033
  11     -0.81662579980247
  12      0.84928456860149
  13      0.81662579170972
  14     -0.84928456139873
  15    -0.033656170437967
  16     0.035002159167705
 Sym= A
 Ene=              15
 Spin= Alpha
 Occup=    0.00000
   1    -1.7051113368017e-07
   2    1.5469188308505e-06
   3    1.7051113496284e-07
   4    -1.5469188366333e-06
   5    1.7051113449615e-07
   6    -1.5469188360759e-06
   7    -1.7051113484344e-07
   8    1.5469188319427e-06
   9      0.60539884208573
  10     -0.72227650619821
  11     -0.60539884416187
  12       0.7222765072627
  13     -0.60539884394652
  14      0.72227650744875
  15      0.60539884231968
  16     -0.72227650599664
