[Molden Format]
made by pyscf v[2.0.1]
[Atoms] (AU)
He   1   2     0.00000000000000     0.00000000000000     0.00000000000000
He   2   2     0.00000000000000     3.77945224913012     0.00000000000000
He   3   2     3.77945224913012     0.00000000000000     0.00000000000000
He   4   2     3.77945224913012     3.77945224913012     0.00000000000000
He   5   2     0.00000000000000     0.00000000000000     9.44863062282531
He   6   2     0.00000000000000     3.77945224913012     9.44863062282531
He   7   2     3.77945224913012     0.00000000000000     9.44863062282531
He   8   2     3.77945224913012     3.77945224913012     9.44863062282531
[GTO]
1 0
 s    3 1.00
             38.421634   0.040139739345788
               5.77803    0.26124609704061
              1.241774    0.79318462463025
 s    1 1.00
              0.297964                   1

2 0
 s    3 1.00
             38.421634   0.040139739345788
               5.77803    0.26124609704061
              1.241774    0.79318462463025
 s    1 1.00
              0.297964                   1

3 0
 s    3 1.00
             38.421634   0.040139739345788
               5.77803    0.26124609704061
              1.241774    0.79318462463025
 s    1 1.00
              0.297964                   1

4 0
 s    3 1.00
             38.421634   0.040139739345788
               5.77803    0.26124609704061
              1.241774    0.79318462463025
 s    1 1.00
              0.297964                   1

5 0
 s    3 1.00
             38.421634   0.040139739345788
               5.77803    0.26124609704061
              1.241774    0.79318462463025
 s    1 1.00
              0.297964                   1

6 0
 s    3 1.00
             38.421634   0.040139739345788
               5.77803    0.26124609704061
              1.241774    0.79318462463025
 s    1 1.00
              0.297964                   1

7 0
 s    3 1.00
             38.421634   0.040139739345788
               5.77803    0.26124609704061
              1.241774    0.79318462463025
 s    1 1.00
              0.297964                   1

8 0
 s    3 1.00
             38.421634   0.040139739345788
               5.77803    0.26124609704061
              1.241774    0.79318462463025
 s    1 1.00
              0.297964                   1

[5d]
[7f]
[9g]

[MO]
 Sym= A
 Ene=               0
 Spin= Alpha
 Occup=    1.00000
   1     -0.28441191785161
   2      -0.2450772523725
   3     -0.28441191785162
   4      -0.2450772523725
   5     -0.28441191785161
   6      -0.2450772523725
   7     -0.28441191785161
   8      -0.2450772523725
   9    8.8297740874594e-07
  10    -6.7003438428418e-07
  11    8.8307399315943e-07
  12    -6.6995082543554e-07
  13    8.8293857913731e-07
  14    -6.7006797442543e-07
  15    8.8303516462213e-07
  16    -6.6998441869514e-07
 Sym= A
 Ene=               1
 Spin= Alpha
 Occup=    1.00000
   1     0.028652716978657
   2     0.024788123655209
   3     -0.41905521372446
   4     -0.36253429173587
   5      0.41905521372447
   6      0.36253429173588
   7    -0.028652716978658
   8     -0.02478812365521
   9    -7.9717429213458e-08
  10    6.6339558165295e-08
  11    1.1340995188046e-06
  12    -9.9774117046096e-07
  13    -1.1342081790218e-06
  14    9.9764736740227e-07
  15    7.9608768836293e-08
  16    -6.6433361969222e-08
 Sym= A
 Ene=               2
 Spin= Alpha
 Occup=    1.00000
   1      0.41905521372444
   2      0.36253429173589
   3     0.028652716978644
   4     0.024788123655225
   5     -0.02865271697864
   6     -0.02478812365522
   7     -0.41905521372445
   8     -0.36253429173589
   9    -1.128107595312e-06
  10     1.00292509065e-06
  11    -7.400167901481e-08
  12    7.1284353286561e-08
  13    7.3927720195953e-08
  14    -7.1348200020901e-08
  15    1.1280336362997e-06
  16    -1.0029889376028e-06
 Sym= A
 Ene=               3
 Spin= Alpha
 Occup=    1.00000
   1     -0.30744332171355
   2     -0.26994873597945
   3      0.30744332171354
   4      0.26994873597945
   5      0.30744332171354
   6      0.26994873597944
   7     -0.30744332171354
   8     -0.26994873597944
   9    7.2595525748089e-07
  10    -7.4505656822852e-07
  11    -7.2595525826378e-07
  12    7.4505656897029e-07
  13    -7.2595525865816e-07
  14    7.4505656973501e-07
  15    7.2595525900237e-07
  16    -7.4505657024544e-07
 Sym= A
 Ene=               4
 Spin= Alpha
 Occup=    1.00000
   1      0.55761017573468
   2     -0.50286328293268
   3      0.55761017573465
   4     -0.50286328293264
   5      0.55761017573455
   6     -0.50286328293254
   7      0.55761017573458
   8     -0.50286328293257
   9    1.1685681115547e-07
  10    1.1426205544011e-06
  11    1.1685685715876e-07
  12    1.1426205903914e-06
  13    1.1685679522042e-07
  14    1.1426205373449e-06
  15    1.1685683788258e-07
  16    1.1426205773203e-06
 Sym= A
 Ene=               5
 Spin= Alpha
 Occup=    1.00000
   1      0.79109617856352
   2     -0.82392934084862
   3     -0.20278176123374
   4       0.2111978889505
   5      0.20278176123369
   6     -0.21119788895045
   7     -0.79109617856357
   8      0.82392934084866
   9    -1.1268900852928e-08
  10    1.791105014681e-06
  11    -6.2752141816487e-09
  12    -4.4957000359688e-07
  13    6.2748408377873e-09
  14    4.4957044875093e-07
  15    1.1269274439892e-08
  16    -1.7911054603628e-06
 Sym= A
 Ene=               6
 Spin= Alpha
 Occup=    1.00000
   1     -0.20278176123368
   2      0.21119788895047
   3     -0.79109617856351
   4      0.82392934084859
   5      0.79109617856359
   6     -0.82392934084866
   7      0.20278176123376
   8     -0.21119788895054
   9    7.9598167595474e-09
  10    -4.6439585609319e-07
  11    3.5144686867584e-09
  12    -1.7830287841552e-06
  13    -3.5143596740865e-09
  14    1.783028653927e-06
  15    -7.9599256860678e-09
  16    4.6439598579018e-07
 Sym= A
 Ene=               7
 Spin= Alpha
 Occup=    1.00000
   1      0.60560713602507
   2     -0.72209390379517
   3      -0.6056071360251
   4       0.7220939037952
   5      -0.6056071360251
   6       0.7220939037952
   7      0.60560713602507
   8     -0.72209390379517
   9    -1.6960999570196e-07
  10    1.5486566388988e-06
  11    1.6960807711423e-07
  12    -1.5486546405881e-06
  13    1.6960618173578e-07
  14    -1.5486526669469e-06
  15    -1.6960426354984e-07
  16    1.5486506692706e-06
 Sym= A
 Ene=               8
 Spin= Alpha
 Occup=    0.00000
   1    8.8295245176753e-07
   2    -6.7005598506429e-07
   3    8.8308885891446e-07
   4    -6.6993797726201e-07
   5    8.8293607167501e-07
   6    -6.7007015608309e-07
   7    8.8307247872465e-07
   8    -6.6995214795774e-07
   9      -0.2844119178516
  10     -0.24507725237249
  11     -0.28441191785163
  12     -0.24507725237251
  13     -0.28441191785162
  14      -0.2450772523725
  15      -0.2844119178516
  16     -0.24507725237249
 Sym= A
 Ene=               9
 Spin= Alpha
 Occup=    0.00000
   1    -7.6872238443613e-07
   2    6.7636042258912e-07
   3    -8.3199564647321e-07
   4    7.4135361008313e-07
   5    8.3203670567454e-07
   6    -7.4131816487646e-07
   7    7.6876344362672e-07
   8    -6.7632497738627e-07
   9      0.28406043155943
  10      0.24574720464711
  11      0.30941545139532
  12      0.26768241475098
  13     -0.30941545139533
  14     -0.26768241475098
  15     -0.28406043155944
  16     -0.24574720464712
 Sym= A
 Ene=              10
 Spin= Alpha
 Occup=    0.00000
   1    -8.3212056572896e-07
   2    7.4124566201103e-07
   3    7.6036243912142e-07
   4    -6.8359275852971e-07
   5    -7.6045317659193e-07
   6    6.8351442737605e-07
   7    8.3202982794391e-07
   8    -7.4132399235575e-07
   9      0.30941545139533
  10      0.26768241475098
  11     -0.28406043155941
  12     -0.24574720464714
  13      0.28406043155941
  14      0.24574720464714
  15     -0.30941545139532
  16     -0.26768241475098
 Sym= A
 Ene=              11
 Spin= Alpha
 Occup=    0.00000
   1    -7.2595526146209e-07
   2    7.4505657233063e-07
   3    7.2595526096646e-07
   4    -7.4505657291256e-07
   5    7.2595526044379e-07
   6    -7.4505657335627e-07
   7    -7.2595526115892e-07
   8    7.4505657288922e-07
   9      0.30744332171355
  10      0.26994873597945
  11     -0.30744332171353
  12     -0.26994873597944
  13     -0.30744332171353
  14     -0.26994873597944
  15      0.30744332171355
  16      0.26994873597945
 Sym= A
 Ene=              12
 Spin= Alpha
 Occup=    0.00000
   1    1.1685680147637e-07
   2    1.1426205431704e-06
   3    1.168568625434e-07
   4    1.1426205978352e-06
   5    1.1685679365942e-07
   6    1.1426205368008e-06
   7    1.168568549486e-07
   8    1.1426205917051e-06
   9      0.55761017573474
  10     -0.50286328293275
  11       0.5576101757345
  12     -0.50286328293247
  13      0.55761017573453
  14     -0.50286328293251
  15      0.55761017573469
  16      -0.5028632829327
 Sym= A
 Ene=              13
 Spin= Alpha
 Occup=    0.00000
   1     8.80031944524e-09
   2    -1.844502516155e-06
   3    -4.0767304596645e-09
   4    -7.1395419395783e-08
   5    4.0809193220532e-09
   6    7.1390423591971e-08
   7    -8.8045081196448e-09
   8    1.8445075119698e-06
   9      -0.8159795713795
  10        0.849845478477
  11    -0.033629533422195
  12     0.035025272598209
  13     0.033629533422229
  14    -0.035025272598241
  15      0.81597957137953
  16     -0.84984547847703
 Sym= A
 Ene=              14
 Spin= Alpha
 Occup=    0.00000
   1    -7.3190387888869e-09
   2    8.3263714924328e-08
   3    2.0327161261219e-08
   4    -1.8565079577557e-06
   5    -2.0328740737102e-08
   6    1.8565098412303e-06
   7    7.3206177683981e-09
   8    -8.3265598441033e-08
   9     0.033629533422194
  10    -0.035025272598232
  11     -0.81597957137953
  12      0.84984547847705
  13      0.81597957137951
  14     -0.84984547847704
  15     -0.03362953342223
  16     0.035025272598269
 Sym= A
 Ene=              15
 Spin= Alpha
 Occup=    0.00000
   1    -1.6959914994865e-07
   2    1.5486440975975e-06
   3    1.6959887997261e-07
   4    -1.5486438177806e-06
   5    1.695988981673e-07
   6    -1.5486438363935e-06
   7    -1.6959862619056e-07
   8    1.5486435520504e-06
   9      0.60560713602499
  10      -0.7220939037951
  11     -0.60560713602518
  12      0.72209390379528
  13     -0.60560713602517
  14      0.72209390379526
  15      0.60560713602499
  16      -0.7220939037951
