[Molden Format]
made by pyscf v[2.0.1]
[Atoms] (AU)
He   1   2     0.00000000000000     0.00000000000000     0.00000000000000
He   2   2     0.00000000000000     3.77945224913012     0.00000000000000
He   3   2     3.77945224913012     0.00000000000000     0.00000000000000
He   4   2     3.77945224913012     3.77945224913012     0.00000000000000
He   5   2     0.00000000000000     0.00000000000000     9.44863062282531
He   6   2     0.00000000000000     3.77945224913012     9.44863062282531
He   7   2     3.77945224913012     0.00000000000000     9.44863062282531
He   8   2     3.77945224913012     3.77945224913012     9.44863062282531
[GTO]
1 0
 s    3 1.00
             38.421634   0.040139739345788
               5.77803    0.26124609704061
              1.241774    0.79318462463025
 s    1 1.00
              0.297964                   1

2 0
 s    3 1.00
             38.421634   0.040139739345788
               5.77803    0.26124609704061
              1.241774    0.79318462463025
 s    1 1.00
              0.297964                   1

3 0
 s    3 1.00
             38.421634   0.040139739345788
               5.77803    0.26124609704061
              1.241774    0.79318462463025
 s    1 1.00
              0.297964                   1

4 0
 s    3 1.00
             38.421634   0.040139739345788
               5.77803    0.26124609704061
              1.241774    0.79318462463025
 s    1 1.00
              0.297964                   1

5 0
 s    3 1.00
             38.421634   0.040139739345788
               5.77803    0.26124609704061
              1.241774    0.79318462463025
 s    1 1.00
              0.297964                   1

6 0
 s    3 1.00
             38.421634   0.040139739345788
               5.77803    0.26124609704061
              1.241774    0.79318462463025
 s    1 1.00
              0.297964                   1

7 0
 s    3 1.00
             38.421634   0.040139739345788
               5.77803    0.26124609704061
              1.241774    0.79318462463025
 s    1 1.00
              0.297964                   1

8 0
 s    3 1.00
             38.421634   0.040139739345788
               5.77803    0.26124609704061
              1.241774    0.79318462463025
 s    1 1.00
              0.297964                   1

[5d]
[7f]
[9g]

[MO]
 Sym= A
 Ene=               0
 Spin= Alpha
 Occup=    1.00000
   1     -0.28324895708738
   2     -0.24612494021292
   3     -0.28324895959772
   4     -0.24612494240339
   5      -0.2832489595948
   6     -0.24612494240614
   7      -0.2832489570237
   8     -0.24612494027961
   9    8.7633479199161e-07
  10    -6.613992248003e-07
  11    8.7633479625953e-07
  12    -6.6139923030133e-07
  13    8.7633479683311e-07
  14    -6.6139922974714e-07
  15    8.7633479104979e-07
  16    -6.6139922552009e-07
 Sym= A
 Ene=               1
 Spin= Alpha
 Occup=    1.00000
   1      0.02857383675912
   2     0.024870224089928
   3      -0.4179015565625
   4     -0.36373503035656
   5      0.41790155541918
   6      0.36373502928276
   7    -0.028573835470157
   8    -0.024870223146816
   9    -7.6749716043458e-08
  10    6.7853175048507e-08
  11    1.1224892955144e-06
  12    -9.9237451476339e-07
  13    -1.1224892923282e-06
  14    9.9237451276776e-07
  15    7.674971312068e-08
  16    -6.7853172252964e-08
 Sym= A
 Ene=               2
 Spin= Alpha
 Occup=    1.00000
   1      0.41790155604778
   2      0.36373503008209
   3     0.028573835917891
   4     0.024870223477861
   5    -0.028573836436543
   6    -0.024870223628706
   7     -0.41790155586831
   8     -0.36373502962546
   9    -1.1224892943333e-06
  10    9.923745136896e-07
  11    -7.6749713960947e-08
  12    6.7853173117808e-08
  13    7.6749715191547e-08
  14    -6.7853173881361e-08
  15    1.1224892935173e-06
  16    -9.9237451319568e-07
 Sym= A
 Ene=               3
 Spin= Alpha
 Occup=    1.00000
   1     -0.30756005194977
   2     -0.26980954296062
   3       0.3075600493951
   4      0.26980954025641
   5      0.30756005066233
   6      0.26980954196034
   7     -0.30756005272641
   8      -0.2698095432667
   9    7.2323609397932e-07
  10    -7.4207335720142e-07
  11    -7.2323608541983e-07
  12    7.4207335106694e-07
  13    -7.2323608945961e-07
  14    7.4207335427753e-07
  15    7.2323609539918e-07
  16    -7.4207335915512e-07
 Sym= A
 Ene=               4
 Spin= Alpha
 Occup=    1.00000
   1      0.55820182387845
   2     -0.50235132699123
   3      0.55820181896852
   4     -0.50235132142881
   5        0.558201822786
   6     -0.50235132552005
   7      0.55820182459562
   8     -0.50235132797285
   9    1.1150641301198e-07
  10    1.1409651735068e-06
  11    1.1150641441223e-07
  12    1.1409651615741e-06
  13    1.1150641399431e-07
  14    1.1409651704679e-06
  15    1.1150641332937e-07
  16    1.1409651756455e-06
 Sym= A
 Ene=               5
 Spin= Alpha
 Occup=    1.00000
   1      0.79167128927618
   2      -0.8234302883791
   3     -0.20292917951508
   4      0.21106996681166
   5      0.20292917935076
   6     -0.21106996677456
   7     -0.79167128935833
   8      0.82343028848874
   9    -1.5541578162584e-08
  10    1.7889291500979e-06
  11    3.9837746689829e-09
  12    -4.5855638519035e-07
  13    -3.9837745234186e-09
  14    4.5855638512118e-07
  15    1.5541579216115e-08
  16    -1.7889291512924e-06
 Sym= A
 Ene=               6
 Spin= Alpha
 Occup=    1.00000
   1     -0.20292918082588
   2      0.21106996797897
   3     -0.79167129057671
   4       0.8234302897371
   5      0.79167128800575
   6     -0.82343028717604
   7      0.20292917798961
   8     -0.21106996565108
   9    3.9837753495831e-09
  10    -4.5855638920068e-07
  11    1.5541579135702e-08
  12    -1.7889291540278e-06
  13    -1.5541580955902e-08
  14    1.7889291499648e-06
  15    -3.9837746555482e-09
  16    4.585563822006e-07
 Sym= A
 Ene=               7
 Spin= Alpha
 Occup=    1.00000
   1      0.60554786129552
   2     -0.72214592356351
   3     -0.60554786436834
   4      0.72214592637227
   5     -0.60554786438785
   6      0.72214592635547
   7       0.6055478612975
   8     -0.72214592356145
   9    -1.708607461011e-07
  10    1.547278971302e-06
  11    1.7086074604196e-07
  12    -1.5472789779864e-06
  13    1.708607469208e-07
  14    -1.547278979301e-06
  15    -1.7086074662346e-07
  16    1.5472789722918e-06
 Sym= A
 Ene=               8
 Spin= Alpha
 Occup=    0.00000
   1    8.7633479277252e-07
   2    -6.6139922647089e-07
   3    8.7633479519356e-07
   4    -6.6139922821141e-07
   5    8.7633479514899e-07
   6    -6.6139922847255e-07
   7    8.7633479321858e-07
   8    -6.613992266401e-07
   9     -0.28324895785557
  10     -0.24612494090558
  11     -0.28324895856323
  12     -0.24612494197161
  13     -0.28324895868538
  14     -0.24612494184464
  15     -0.28324895796953
  16     -0.24612494078712
 Sym= A
 Ene=               9
 Spin= Alpha
 Occup=    0.00000
   1    -7.6088969527661e-07
   2    6.7269019419411e-07
   3    -8.2880613284366e-07
   4    7.3273401055889e-07
   5    8.2880613540103e-07
   6    -7.32734013673e-07
   7    7.6088969228047e-07
   8    -6.7269019197114e-07
   9      0.28327841454402
  10      0.24656113659731
  11      0.30856363087206
  12      0.26856899661955
  13     -0.30856363223007
  14     -0.26856899748348
  15     -0.28327841364548
  16     -0.24656113531974
 Sym= A
 Ene=              10
 Spin= Alpha
 Occup=    0.00000
   1    -8.2880613479482e-07
   2    7.3273401312593e-07
   3    7.6088969399801e-07
   4    -6.7269019385459e-07
   5    -7.6088969388227e-07
   6    6.7269019231263e-07
   7    8.2880613284122e-07
   8    -7.3273401191017e-07
   9       0.3085636318753
  10      0.26856899705477
  11      -0.2832784142623
  12     -0.24656113611813
  13      0.28327841388951
  14      0.24656113583812
  15     -0.30856363140806
  16     -0.26856899685975
 Sym= A
 Ene=              11
 Spin= Alpha
 Occup=    0.00000
   1    -7.2323609066569e-07
   2    7.4207335480693e-07
   3    7.2323609089898e-07
   4    -7.4207335618573e-07
   5    7.2323608837714e-07
   6    -7.4207335400612e-07
   7    -7.2323609422592e-07
   8    7.4207335863145e-07
   9      0.30756005072823
  10      0.26980954204587
  11     -0.30756005115441
  12     -0.26980954215367
  13     -0.30756005011317
  14     -0.26980954162687
  15      0.30756005223886
  16      0.26980954321266
 Sym= A
 Ene=              12
 Spin= Alpha
 Occup=    0.00000
   1    1.1150641260593e-07
   2    1.1409651706645e-06
   3    1.115064131778e-07
   4    1.1409651703704e-06
   5    1.1150641444316e-07
   6    1.1409651635183e-06
   7    1.1150641203526e-07
   8    1.140965178959e-06
   9      0.55820182216096
  10     -0.50235132511306
  11      0.55820182263493
  12      -0.5023513251702
  13      0.55820182005484
  14     -0.50235132277505
  15      0.55820182549453
  16     -0.50235132875327
 Sym= A
 Ene=              13
 Spin= Alpha
 Occup=    0.00000
   1    1.6030429551238e-08
   2    -1.8451987054678e-06
   3    6.6067365368178e-10
   4    -7.6047460264163e-08
   5    -6.6067391311089e-10
   6    7.6047455535175e-08
   7    -1.6030429320044e-08
   8    1.8451987001814e-06
   9     -0.81657277296793
  10      0.84933072974363
  11    -0.033653982543692
  12     0.035004058875459
  13     0.033653980266464
  14    -0.035004056841723
  15      0.81657277062602
  16     -0.84933072776612
 Sym= A
 Ene=              14
 Spin= Alpha
 Occup=    0.00000
   1    -6.6067317091495e-10
   2    7.6047459074359e-08
   3    1.603043004224e-08
   4    -1.8451987013737e-06
   5    -1.6030429267905e-08
   6    1.8451987044553e-06
   7    6.6067323281839e-10
   8    -7.6047455076967e-08
   9     0.033653982199087
  10    -0.035004058720371
  11      -0.8165727709433
  12      0.84933072794566
  13      0.81657277273007
  14     -0.84933072949496
  15    -0.033653980559162
  16     0.035004057041988
 Sym= A
 Ene=              15
 Spin= Alpha
 Occup=    0.00000
   1    -1.7086074674512e-07
   2    1.5472789730274e-06
   3    1.7086074642732e-07
   4    -1.5472789793376e-06
   5    1.7086074601921e-07
   6    -1.5472789785679e-06
   7    -1.7086074703761e-07
   8    1.5472789732824e-06
   9       0.6055478616999
  10     -0.72214592392673
  11     -0.60554786406956
  12      0.72214592591596
  13     -0.60554786411916
  14      0.72214592587293
  15      0.60554786171401
  16     -0.72214592391478
