[Molden Format]
made by pyscf v[2.0.1]
[Atoms] (AU)
He   1   2     0.00000000000000     0.00000000000000     0.00000000000000
He   2   2     0.00000000000000     3.77945224913012     0.00000000000000
He   3   2     3.77945224913012     0.00000000000000     0.00000000000000
He   4   2     3.77945224913012     3.77945224913012     0.00000000000000
He   5   2     0.00000000000000     0.00000000000000     9.44863062282531
He   6   2     0.00000000000000     3.77945224913012     9.44863062282531
He   7   2     3.77945224913012     0.00000000000000     9.44863062282531
He   8   2     3.77945224913012     3.77945224913012     9.44863062282531
[GTO]
1 0
 s    3 1.00
             38.421634   0.040139739345788
               5.77803    0.26124609704061
              1.241774    0.79318462463025
 s    1 1.00
              0.297964                   1

2 0
 s    3 1.00
             38.421634   0.040139739345788
               5.77803    0.26124609704061
              1.241774    0.79318462463025
 s    1 1.00
              0.297964                   1

3 0
 s    3 1.00
             38.421634   0.040139739345788
               5.77803    0.26124609704061
              1.241774    0.79318462463025
 s    1 1.00
              0.297964                   1

4 0
 s    3 1.00
             38.421634   0.040139739345788
               5.77803    0.26124609704061
              1.241774    0.79318462463025
 s    1 1.00
              0.297964                   1

5 0
 s    3 1.00
             38.421634   0.040139739345788
               5.77803    0.26124609704061
              1.241774    0.79318462463025
 s    1 1.00
              0.297964                   1

6 0
 s    3 1.00
             38.421634   0.040139739345788
               5.77803    0.26124609704061
              1.241774    0.79318462463025
 s    1 1.00
              0.297964                   1

7 0
 s    3 1.00
             38.421634   0.040139739345788
               5.77803    0.26124609704061
              1.241774    0.79318462463025
 s    1 1.00
              0.297964                   1

8 0
 s    3 1.00
             38.421634   0.040139739345788
               5.77803    0.26124609704061
              1.241774    0.79318462463025
 s    1 1.00
              0.297964                   1

[5d]
[7f]
[9g]

[MO]
 Sym= A
 Ene=               0
 Spin= Alpha
 Occup=    1.00000
   1     -0.28441191785931
   2     -0.24507725236554
   3     -0.28441191785933
   4     -0.24507725236556
   5     -0.28441191785932
   6     -0.24507725236555
   7     -0.28441191785931
   8     -0.24507725236554
   9    8.830581097968e-07
  10    -6.6996457843064e-07
  11    8.8305223264983e-07
  12    -6.6996966087873e-07
  13    8.8296904326882e-07
  14    -6.7004162990616e-07
  15    8.8296316719296e-07
  16    -6.7004671547236e-07
 Sym= A
 Ene=               1
 Spin= Alpha
 Occup=    1.00000
   1     0.028652716976695
   2     0.024788123657252
   3     -0.41905521369577
   4     -0.36253429176576
   5      0.41905521369578
   6      0.36253429176576
   7    -0.028652716976696
   8    -0.024788123657253
   9    -7.9714959196868e-08
  10    6.6341772382385e-08
  11    1.1341019916638e-06
  12    -9.9773895364002e-07
  13    -1.1342057082282e-06
  14    9.9764958171679e-07
  15    7.961124247091e-08
  16    -6.643114505235e-08
 Sym= A
 Ene=               2
 Spin= Alpha
 Occup=    1.00000
   1      0.41905521369575
   2      0.36253429176577
   3     0.028652716976682
   4     0.024788123657268
   5    -0.028652716976679
   6    -0.024788123657264
   7     -0.41905521369576
   8     -0.36253429176578
   9    -1.1280698907798e-06
  10    1.0029576378112e-06
  11    -7.3963969650851e-08
  12    7.1316905247389e-08
  13    7.3965421620849e-08
  14    -7.1315654067232e-08
  15    1.1280713425567e-06
  16    -1.0029563868512e-06
 Sym= A
 Ene=               3
 Spin= Alpha
 Occup=    1.00000
   1     -0.30744332166913
   2     -0.26994873603241
   3      0.30744332166912
   4       0.2699487360324
   5      0.30744332166912
   6       0.2699487360324
   7     -0.30744332166913
   8     -0.26994873603241
   9    7.2595525977275e-07
  10    -7.4505657073597e-07
  11    -7.2595525997126e-07
  12    7.4505657086925e-07
  13    -7.2595525978615e-07
  14    7.4505657102996e-07
  15    7.2595525954576e-07
  16    -7.4505657093128e-07
 Sym= A
 Ene=               4
 Spin= Alpha
 Occup=    1.00000
   1       0.5576101757308
   2     -0.50286328293613
   3      0.55761017573066
   4     -0.50286328293596
   5      0.55761017573057
   6     -0.50286328293586
   7       0.5576101757307
   8     -0.50286328293602
   9    1.1685682584311e-07
  10    1.1426205671064e-06
  11    1.1685682790706e-07
  12    1.1426205650885e-06
  13    1.1685682750073e-07
  14    1.1426205652642e-06
  15    1.1685682622099e-07
  16    1.1426205672358e-06
 Sym= A
 Ene=               5
 Spin= Alpha
 Occup=    1.00000
   1      0.79109617857785
   2     -0.82392934083622
   3     -0.20278176123742
   4      0.21119788894732
   5      0.20278176123737
   6     -0.21119788894727
   7      -0.7910961785779
   8      0.82392934083627
   9    -1.1268940893516e-08
  10    1.7911050623125e-06
  11    -6.2751762501868e-09
  12    -4.4957004875845e-07
  13    6.2748843522065e-09
  14    4.495703970133e-07
  15    1.1269233349085e-08
  16    -1.7911054108099e-06
 Sym= A
 Ene=               6
 Spin= Alpha
 Occup=    1.00000
   1     -0.20278176123735
   2      0.21119788894729
   3     -0.79109617857784
   4      0.82392934083619
   5      0.79109617857792
   6     -0.82392934083627
   7      0.20278176123743
   8     -0.21119788894737
   9    7.9593137872261e-09
  10    -4.6439525563412e-07
  11    3.5149743989804e-09
  12    -1.7830293866326e-06
  13    -3.5138502187936e-09
  14    1.7830280462586e-06
  15    -7.9604376405512e-09
  16    4.6439659569596e-07
 Sym= A
 Ene=               7
 Spin= Alpha
 Occup=    1.00000
   1      0.60560713604757
   2     -0.72209390377533
   3     -0.60560713604769
   4      0.72209390377544
   5     -0.60560713604769
   6      0.72209390377544
   7      0.60560713604757
   8     -0.72209390377533
   9    -1.6960668225658e-07
  10    1.5486532114898e-06
  11    1.6960818739372e-07
  12    -1.5486547790029e-06
  13    1.6960639857721e-07
  14    -1.5486529163492e-06
  15    -1.6960790411491e-07
  16    1.5486544844956e-06
 Sym= A
 Ene=               8
 Spin= Alpha
 Occup=    0.00000
   1    8.8300395858647e-07
   2    -6.700114160276e-07
   3    8.8308459561302e-07
   4    -6.6994165545599e-07
   5    8.8293163206842e-07
   6    -6.7007398767769e-07
   7    8.8301226899792e-07
   8    -6.7000422678382e-07
   9     -0.28441191785931
  10     -0.24507725236554
  11     -0.28441191785934
  12     -0.24507725236556
  13     -0.28441191785933
  14     -0.24507725236555
  15     -0.28441191785931
  16     -0.24507725236554
 Sym= A
 Ene=               9
 Spin= Alpha
 Occup=    0.00000
   1    -7.6870043058625e-07
   2    6.7637930772741e-07
   3    -8.3197369088917e-07
   4    7.4137249609946e-07
   5    8.3205866117711e-07
   6    -7.4129927717497e-07
   7    7.6878540086896e-07
   8    -6.7630608881335e-07
   9      0.28406043153998
  10      0.24574720466737
  11      0.30941545137414
  12      0.26768241477304
  13     -0.30941545137414
  14     -0.26768241477304
  15     -0.28406043153999
  16     -0.24574720466738
 Sym= A
 Ene=              10
 Spin= Alpha
 Occup=    0.00000
   1    -8.3207056229387e-07
   2    7.4128882044474e-07
   3    7.6041243603041e-07
   4    -6.8354960366353e-07
   5    -7.6040317486781e-07
   6    6.8355758401913e-07
   7    8.3207982315385e-07
   8    -7.4128083929562e-07
   9      0.30941545137414
  10      0.26768241477304
  11     -0.28406043153996
  12     -0.24574720466739
  13      0.28406043153997
  14       0.2457472046674
  15     -0.30941545137414
  16     -0.26768241477304
 Sym= A
 Ene=              11
 Spin= Alpha
 Occup=    0.00000
   1    -7.2595526048066e-07
   2    7.4505657104512e-07
   3    7.2595525990409e-07
   4    -7.4505657154343e-07
   5    7.2595525938635e-07
   6    -7.4505657199011e-07
   7    -7.2595526002133e-07
   8    7.4505657144015e-07
   9      0.30744332166913
  10      0.26994873603241
  11     -0.30744332166911
  12     -0.26994873603239
  13     -0.30744332166912
  14      -0.2699487360324
  15      0.30744332166913
  16      0.26994873603241
 Sym= A
 Ene=              12
 Spin= Alpha
 Occup=    0.00000
   1    1.1685682750465e-07
   2    1.1426205656443e-06
   3    1.1685682645544e-07
   4    1.1426205665799e-06
   5    1.1685682713697e-07
   6    1.1426205657165e-06
   7    1.1685682630851e-07
   8    1.1426205668928e-06
   9      0.55761017573081
  10     -0.50286328293614
  11      0.55761017573056
  12     -0.50286328293585
  13       0.5576101757306
  14     -0.50286328293589
  15      0.55761017573076
  16     -0.50286328293609
 Sym= A
 Ene=              13
 Spin= Alpha
 Occup=    0.00000
   1    8.8028935142823e-09
   2    -1.8445055855787e-06
   3    -4.0793090903574e-09
   4    -7.1392344659596e-08
   5    4.0783493944083e-09
   6    7.1393488955588e-08
   7    -8.8019337362766e-09
   8    1.844504441196e-06
   9     -0.81597957139428
  10      0.84984547846422
  11    -0.033629533422804
  12     0.035025272597682
  13     0.033629533422838
  14    -0.035025272597714
  15      0.81597957139431
  16     -0.84984547846425
 Sym= A
 Ene=              14
 Spin= Alpha
 Occup=    0.00000
   1    -7.3191864837879e-09
   2    8.3263891279144e-08
   3    2.032731009077e-08
   4    -1.8565081346658e-06
   5    -2.0328598366475e-08
   6    1.8565096707153e-06
   7    7.3204745430437e-09
   8    -8.326542711608e-08
   9     0.033629533422803
  10    -0.035025272597705
  11      -0.8159795713943
  12      0.84984547846426
  13      0.81597957139429
  14     -0.84984547846425
  15    -0.033629533422839
  16     0.035025272597742
 Sym= A
 Ene=              15
 Spin= Alpha
 Occup=    0.00000
   1    -1.6959910310669e-07
   2    1.5486440256229e-06
   3    1.6959803974584e-07
   4    -1.5486429194932e-06
   5    1.6959941109933e-07
   6    -1.5486443474255e-06
   7    -1.6959834573516e-07
   8    1.5486432367672e-06
   9      0.60560713604754
  10      -0.7220939037753
  11     -0.60560713604773
  12      0.72209390377548
  13     -0.60560713604772
  14      0.72209390377546
  15      0.60560713604754
  16      -0.7220939037753
