[Molden Format]
made by pyscf v[1.7.0]
[Atoms] (AU)
He   1   2     0.00000000000000     0.00000000000000     0.00000000000000
He   2   2     0.00000000000000     3.77945224913012     0.00000000000000
He   3   2     3.77945224913012     0.00000000000000     0.00000000000000
He   4   2     3.77945224913012     3.77945224913012     0.00000000000000
He   5   2     0.00000000000000     0.00000000000000     9.44863062282531
He   6   2     0.00000000000000     3.77945224913012     9.44863062282531
He   7   2     3.77945224913012     0.00000000000000     9.44863062282531
He   8   2     3.77945224913012     3.77945224913012     9.44863062282531
[GTO]
1 0
 s    3 1.00
             38.421634   0.040139739345788
               5.77803    0.26124609704061
              1.241774    0.79318462463025
 s    1 1.00
              0.297964                   1

2 0
 s    3 1.00
             38.421634   0.040139739345788
               5.77803    0.26124609704061
              1.241774    0.79318462463025
 s    1 1.00
              0.297964                   1

3 0
 s    3 1.00
             38.421634   0.040139739345788
               5.77803    0.26124609704061
              1.241774    0.79318462463025
 s    1 1.00
              0.297964                   1

4 0
 s    3 1.00
             38.421634   0.040139739345788
               5.77803    0.26124609704061
              1.241774    0.79318462463025
 s    1 1.00
              0.297964                   1

5 0
 s    3 1.00
             38.421634   0.040139739345788
               5.77803    0.26124609704061
              1.241774    0.79318462463025
 s    1 1.00
              0.297964                   1

6 0
 s    3 1.00
             38.421634   0.040139739345788
               5.77803    0.26124609704061
              1.241774    0.79318462463025
 s    1 1.00
              0.297964                   1

7 0
 s    3 1.00
             38.421634   0.040139739345788
               5.77803    0.26124609704061
              1.241774    0.79318462463025
 s    1 1.00
              0.297964                   1

8 0
 s    3 1.00
             38.421634   0.040139739345788
               5.77803    0.26124609704061
              1.241774    0.79318462463025
 s    1 1.00
              0.297964                   1

[5d]
[7f]
[9g]

[MO]
 Sym= A
 Ene=               0
 Spin= Alpha
 Occup=    1.00000
   1     -0.28492179856048
   2     -0.24461722262954
   3     -0.28492179856048
   4     -0.24461722262954
   5     -0.28492179856048
   6     -0.24461722262954
   7     -0.28492179856047
   8     -0.24461722262954
   9    8.8137851654434e-07
  10    -6.6967623807726e-07
  11    8.8137851396441e-07
  12    -6.6967623717005e-07
  13    8.8137851483308e-07
  14    -6.6967623657692e-07
  15    8.8137851560257e-07
  16    -6.6967623878063e-07
 Sym= A
 Ene=               1
 Spin= Alpha
 Occup=    1.00000
   1     0.028652543083757
   2     0.024788304767079
   3     -0.41905267045554
   4     -0.36253694055516
   5      0.41905267045554
   6      0.36253694055515
   7    -0.028652543083745
   8     -0.02478830476707
   9    -7.7207718561048e-08
  10    6.8506504202281e-08
  11    1.1291877468213e-06
  12    -1.0019296857355e-06
  13    -1.1291877464636e-06
  14    1.0019296863637e-06
  15    7.7207718335411e-08
  16    -6.8506504554455e-08
 Sym= A
 Ene=               2
 Spin= Alpha
 Occup=    1.00000
   1      0.41905267045554
   2      0.36253694055516
   3     0.028652543083749
   4     0.024788304767073
   5    -0.028652543083753
   6    -0.024788304767075
   7     -0.41905267045554
   8     -0.36253694055515
   9    -1.1291877465039e-06
  10    1.0019296858901e-06
  11    -7.7207718229319e-08
  12    6.8506504317412e-08
  13    7.7207718564696e-08
  14    -6.8506503954442e-08
  15     1.12918774665e-06
  16    -1.0019296858415e-06
 Sym= A
 Ene=               3
 Spin= Alpha
 Occup=    1.00000
   1     -0.30707170508475
   2      -0.2703917121828
   3      0.30707170508475
   4      0.27039171218279
   5      0.30707170508476
   6       0.2703917121828
   7     -0.30707170508476
   8      -0.2703917121828
   9    7.2794094476435e-07
  10    -7.465967999636e-07
  11    -7.2794094494015e-07
  12    7.4659680019587e-07
  13    -7.2794094481726e-07
  14    7.465968002175e-07
  15    7.2794094476917e-07
  16    -7.4659680007385e-07
 Sym= A
 Ene=               4
 Spin= Alpha
 Occup=    1.00000
   1       0.5573498145724
   2     -0.50308722439079
   3      0.55734981457239
   4     -0.50308722439078
   5      0.55734981457239
   6     -0.50308722439079
   7       0.5573498145724
   8     -0.50308722439079
   9    1.1688550993693e-07
  10    1.1413385853988e-06
  11    1.1688551010871e-07
  12    1.1413385855582e-06
  13    1.1688551001943e-07
  14    1.1413385853288e-06
  15    1.168855104675e-07
  16    1.1413385853079e-06
 Sym= A
 Ene=               5
 Spin= Alpha
 Occup=    1.00000
   1      0.79109744861453
   2     -0.82392824209101
   3     -0.20278208678602
   4      0.21119760730585
   5      0.20278208678601
   6     -0.21119760730584
   7     -0.79109744861454
   8      0.82392824209101
   9    -1.0668027096451e-08
  10    1.7904511939852e-06
  11    2.7345371010991e-09
  12    -4.5894653101656e-07
  13    -2.7345365250877e-09
  14    4.5894653064071e-07
  15    1.0668027935139e-08
  16    -1.7904511948311e-06
 Sym= A
 Ene=               6
 Spin= Alpha
 Occup=    1.00000
   1     -0.20278208678601
   2      0.21119760730584
   3     -0.79109744861454
   4      0.82392824209101
   5      0.79109744861454
   6     -0.82392824209101
   7      0.20278208678601
   8     -0.21119760730584
   9    2.7345376409243e-09
  10    -4.5894653165025e-07
  11    1.0668028268115e-08
  12    -1.7904511950454e-06
  13    -1.0668028124852e-08
  14    1.7904511950039e-06
  15    -2.7345368567455e-09
  16    4.5894653098699e-07
 Sym= A
 Ene=               7
 Spin= Alpha
 Occup=    1.00000
   1      0.60579564805889
   2     -0.72192814596601
   3      -0.6057956480589
   4      0.72192814596601
   5      -0.6057956480589
   6      0.72192814596601
   7       0.6057956480589
   8     -0.72192814596601
   9    -1.6898903499814e-07
  10    1.5500383631599e-06
  11    1.6898903448236e-07
  12    -1.5500383624934e-06
  13    1.6898903465397e-07
  14    -1.5500383630047e-06
  15    -1.68989034934e-07
  16    1.5500383634625e-06
 Sym= A
 Ene=               8
 Spin= Alpha
 Occup=    0.00000
   1    8.8137851504279e-07
   2    -6.6967623758681e-07
   3    8.8137851548879e-07
   4    -6.6967623751787e-07
   5    8.8137851538557e-07
   6    -6.6967623769734e-07
   7     8.81378515689e-07
   8    -6.6967623768081e-07
   9     -0.28492179856047
  10     -0.24461722262954
  11     -0.28492179856048
  12     -0.24461722262954
  13     -0.28492179856047
  14     -0.24461722262953
  15     -0.28492179856047
  16     -0.24461722262954
 Sym= A
 Ene=               9
 Spin= Alpha
 Occup=    0.00000
   1    -7.6543030167141e-07
   2    6.7916725448154e-07
   3    -8.3375203319104e-07
   4    7.3978921131283e-07
   5    8.3375203284337e-07
   6    -7.3978921130457e-07
   7    7.6543030127637e-07
   8    -6.7916725454571e-07
   9      0.28405870758119
  10      0.24574900017363
  11       0.3094135735361
  12      0.26768437054482
  13     -0.30941357353611
  14     -0.26768437054482
  15      -0.2840587075812
  16     -0.24574900017364
 Sym= A
 Ene=              10
 Spin= Alpha
 Occup=    0.00000
   1    -8.337520333626e-07
   2    7.3978921157177e-07
   3    7.6543030137145e-07
   4    -6.7916725500666e-07
   5    -7.6543030188999e-07
   6    6.7916725442842e-07
   7    8.3375203210281e-07
   8    -7.3978921143447e-07
   9      0.30941357353611
  10      0.26768437054482
  11     -0.28405870758119
  12     -0.24574900017363
  13       0.2840587075812
  14      0.24574900017363
  15      -0.3094135735361
  16     -0.26768437054482
 Sym= A
 Ene=              11
 Spin= Alpha
 Occup=    0.00000
   1    -7.2794094550354e-07
   2    7.4659680043548e-07
   3    7.2794094546656e-07
   4    -7.4659680053104e-07
   5    7.279409451252e-07
   6    -7.4659680070328e-07
   7    -7.2794094521018e-07
   8    7.4659680091546e-07
   9      0.30707170508475
  10       0.2703917121828
  11     -0.30707170508475
  12     -0.27039171218279
  13     -0.30707170508475
  14      -0.2703917121828
  15      0.30707170508475
  16       0.2703917121828
 Sym= A
 Ene=              12
 Spin= Alpha
 Occup=    0.00000
   1    1.1688551075067e-07
   2    1.1413385848564e-06
   3    1.1688551002511e-07
   4    1.1413385855121e-06
   5    1.1688551013175e-07
   6    1.1413385851866e-06
   7    1.1688551015233e-07
   8    1.1413385854829e-06
   9       0.5573498145724
  10     -0.50308722439079
  11      0.55734981457239
  12     -0.50308722439078
  13       0.5573498145724
  14     -0.50308722439079
  15       0.5573498145724
  16     -0.50308722439079
 Sym= A
 Ene=              13
 Spin= Alpha
 Occup=    0.00000
   1    1.100358264843e-08
   2    -1.8467686199231e-06
   3    4.5349896482956e-10
   4    -7.6112160160006e-08
   5    -4.5349883437772e-10
   6    7.6112159877344e-08
   7    -1.1003583012267e-08
   8    1.8467686203276e-06
   9      -0.8159808813791
  10      0.84984434515872
  11    -0.033629587412134
  12     0.035025225889998
  13     0.033629587412138
  14    -0.035025225890002
  15       0.8159808813791
  16     -0.84984434515871
 Sym= A
 Ene=              14
 Spin= Alpha
 Occup=    0.00000
   1    -4.53498253428e-10
   2    7.6112159137388e-08
   3    1.1003583455334e-08
   4    -1.8467686206546e-06
   5    -1.1003583786633e-08
   6    1.8467686209934e-06
   7    4.5349795834459e-10
   8    -7.6112158777377e-08
   9     0.033629587412126
  10     -0.03502522588999
  11      -0.8159808813791
  12      0.84984434515871
  13       0.8159808813791
  14     -0.84984434515872
  15    -0.033629587412144
  16     0.035025225890009
 Sym= A
 Ene=              15
 Spin= Alpha
 Occup=    0.00000
   1    -1.6898903466023e-07
   2    1.5500383630268e-06
   3    1.6898903426984e-07
   4    -1.5500383638187e-06
   5    1.6898903476198e-07
   6    -1.550038363949e-06
   7    -1.6898903518123e-07
   8    1.5500383635474e-06
   9       0.6057956480589
  10     -0.72192814596601
  11     -0.60579564805891
  12      0.72192814596602
  13     -0.60579564805889
  14        0.721928145966
  15       0.6057956480589
  16     -0.72192814596601
