[Molden Format]
made by pyscf v[1.7.0]
[Atoms] (AU)
He   1   2     0.00000000000000     0.00000000000000     0.00000000000000
He   2   2     0.00000000000000     3.77945224913012     0.00000000000000
He   3   2     3.77945224913012     0.00000000000000     0.00000000000000
He   4   2     3.77945224913012     3.77945224913012     0.00000000000000
He   5   2     0.00000000000000     0.00000000000000     9.44863062282531
He   6   2     0.00000000000000     3.77945224913012     9.44863062282531
He   7   2     3.77945224913012     0.00000000000000     9.44863062282531
He   8   2     3.77945224913012     3.77945224913012     9.44863062282531
[GTO]
1 0
 s    3 1.00
             38.421634   0.040139739345788
               5.77803    0.26124609704061
              1.241774    0.79318462463025
 s    1 1.00
              0.297964                   1

2 0
 s    3 1.00
             38.421634   0.040139739345788
               5.77803    0.26124609704061
              1.241774    0.79318462463025
 s    1 1.00
              0.297964                   1

3 0
 s    3 1.00
             38.421634   0.040139739345788
               5.77803    0.26124609704061
              1.241774    0.79318462463025
 s    1 1.00
              0.297964                   1

4 0
 s    3 1.00
             38.421634   0.040139739345788
               5.77803    0.26124609704061
              1.241774    0.79318462463025
 s    1 1.00
              0.297964                   1

5 0
 s    3 1.00
             38.421634   0.040139739345788
               5.77803    0.26124609704061
              1.241774    0.79318462463025
 s    1 1.00
              0.297964                   1

6 0
 s    3 1.00
             38.421634   0.040139739345788
               5.77803    0.26124609704061
              1.241774    0.79318462463025
 s    1 1.00
              0.297964                   1

7 0
 s    3 1.00
             38.421634   0.040139739345788
               5.77803    0.26124609704061
              1.241774    0.79318462463025
 s    1 1.00
              0.297964                   1

8 0
 s    3 1.00
             38.421634   0.040139739345788
               5.77803    0.26124609704061
              1.241774    0.79318462463025
 s    1 1.00
              0.297964                   1

[5d]
[7f]
[9g]

[MO]
 Sym= A
 Ene=               0
 Spin= Alpha
 Occup=    1.00000
   1     -0.28492179856048
   2     -0.24461722262954
   3     -0.28492179856048
   4     -0.24461722262954
   5     -0.28492179856048
   6     -0.24461722262954
   7     -0.28492179856047
   8     -0.24461722262954
   9    8.8137851654434e-07
  10    -6.6967623807726e-07
  11    8.8137851396441e-07
  12    -6.6967623717005e-07
  13    8.8137851483308e-07
  14    -6.6967623657692e-07
  15    8.8137851560257e-07
  16    -6.6967623878063e-07
 Sym= A
 Ene=               1
 Spin= Alpha
 Occup=    1.00000
   1     0.028652543083757
   2     0.024788304767079
   3     -0.41905267045554
   4     -0.36253694055516
   5      0.41905267045554
   6      0.36253694055515
   7    -0.028652543083745
   8     -0.02478830476707
   9    -7.7207718561048e-08
  10    6.8506504202281e-08
  11    1.1291877468213e-06
  12    -1.0019296857355e-06
  13    -1.1291877464636e-06
  14    1.0019296863637e-06
  15    7.7207718335411e-08
  16    -6.8506504554455e-08
 Sym= A
 Ene=               2
 Spin= Alpha
 Occup=    1.00000
   1      0.41905267045554
   2      0.36253694055516
   3     0.028652543083749
   4     0.024788304767073
   5    -0.028652543083753
   6    -0.024788304767075
   7     -0.41905267045554
   8     -0.36253694055515
   9    -1.1291877465039e-06
  10    1.0019296858901e-06
  11    -7.7207718229319e-08
  12    6.8506504317412e-08
  13    7.7207718564696e-08
  14    -6.8506503954442e-08
  15     1.12918774665e-06
  16    -1.0019296858415e-06
 Sym= A
 Ene=               3
 Spin= Alpha
 Occup=    1.00000
   1     -0.30707170508475
   2      -0.2703917121828
   3      0.30707170508475
   4      0.27039171218279
   5      0.30707170508476
   6       0.2703917121828
   7     -0.30707170508476
   8      -0.2703917121828
   9    7.2794094476435e-07
  10    -7.465967999636e-07
  11    -7.2794094494015e-07
  12    7.4659680019587e-07
  13    -7.2794094481726e-07
  14    7.465968002175e-07
  15    7.2794094476917e-07
  16    -7.4659680007385e-07
 Sym= A
 Ene=               4
 Spin= Alpha
 Occup=    1.00000
   1       0.5573498145724
   2     -0.50308722439079
   3      0.55734981457239
   4     -0.50308722439078
   5      0.55734981457239
   6     -0.50308722439079
   7       0.5573498145724
   8     -0.50308722439079
   9    1.1688550993693e-07
  10    1.1413385853988e-06
  11    1.1688551010871e-07
  12    1.1413385855582e-06
  13    1.1688551001943e-07
  14    1.1413385853288e-06
  15    1.168855104675e-07
  16    1.1413385853079e-06
 Sym= A
 Ene=               5
 Spin= Alpha
 Occup=    1.00000
   1      0.79109744861453
   2     -0.82392824209101
   3     -0.20278208678602
   4      0.21119760730585
   5      0.20278208678601
   6     -0.21119760730584
   7     -0.79109744861454
   8      0.82392824209101
   9    -1.0668027096451e-08
  10    1.7904511939852e-06
  11    2.7345371010991e-09
  12    -4.5894653101656e-07
  13    -2.7345365250877e-09
  14    4.5894653064071e-07
  15    1.0668027935139e-08
  16    -1.7904511948311e-06
 Sym= A
 Ene=               6
 Spin= Alpha
 Occup=    1.00000
   1     -0.20278208678601
   2      0.21119760730584
   3     -0.79109744861454
   4      0.82392824209101
   5      0.79109744861454
   6     -0.82392824209101
   7      0.20278208678601
   8     -0.21119760730584
   9    2.7345376409243e-09
  10    -4.5894653165025e-07
  11    1.0668028268115e-08
  12    -1.7904511950454e-06
  13    -1.0668028124852e-08
  14    1.7904511950039e-06
  15    -2.7345368567455e-09
  16    4.5894653098699e-07
 Sym= A
 Ene=               7
 Spin= Alpha
 Occup=    1.00000
   1      0.60579564805889
   2     -0.72192814596601
   3      -0.6057956480589
   4      0.72192814596601
   5      -0.6057956480589
   6      0.72192814596601
   7       0.6057956480589
   8     -0.72192814596601
   9    -1.6898903499814e-07
  10    1.5500383631599e-06
  11    1.6898903448236e-07
  12    -1.5500383624934e-06
  13    1.6898903465397e-07
  14    -1.5500383630047e-06
  15    -1.68989034934e-07
  16    1.5500383634625e-06
