[Molden Format]
made by pyscf v[1.7.0]
[Atoms] (AU)
He   1   2     0.00000000000000     0.00000000000000     0.00000000000000
He   2   2     0.00000000000000     3.77945224913012     0.00000000000000
He   3   2     3.77945224913012     0.00000000000000     0.00000000000000
He   4   2     3.77945224913012     3.77945224913012     0.00000000000000
He   5   2     0.00000000000000     0.00000000000000     9.44863062282531
He   6   2     0.00000000000000     3.77945224913012     9.44863062282531
He   7   2     3.77945224913012     0.00000000000000     9.44863062282531
He   8   2     3.77945224913012     3.77945224913012     9.44863062282531
[GTO]
1 0
 s    3 1.00
             38.421634   0.040139739345788
               5.77803    0.26124609704061
              1.241774    0.79318462463025
 s    1 1.00
              0.297964                   1

2 0
 s    3 1.00
             38.421634   0.040139739345788
               5.77803    0.26124609704061
              1.241774    0.79318462463025
 s    1 1.00
              0.297964                   1

3 0
 s    3 1.00
             38.421634   0.040139739345788
               5.77803    0.26124609704061
              1.241774    0.79318462463025
 s    1 1.00
              0.297964                   1

4 0
 s    3 1.00
             38.421634   0.040139739345788
               5.77803    0.26124609704061
              1.241774    0.79318462463025
 s    1 1.00
              0.297964                   1

5 0
 s    3 1.00
             38.421634   0.040139739345788
               5.77803    0.26124609704061
              1.241774    0.79318462463025
 s    1 1.00
              0.297964                   1

6 0
 s    3 1.00
             38.421634   0.040139739345788
               5.77803    0.26124609704061
              1.241774    0.79318462463025
 s    1 1.00
              0.297964                   1

7 0
 s    3 1.00
             38.421634   0.040139739345788
               5.77803    0.26124609704061
              1.241774    0.79318462463025
 s    1 1.00
              0.297964                   1

8 0
 s    3 1.00
             38.421634   0.040139739345788
               5.77803    0.26124609704061
              1.241774    0.79318462463025
 s    1 1.00
              0.297964                   1

[5d]
[7f]
[9g]

[MO]
 Sym= A
 Ene=               0
 Spin= Alpha
 Occup=    1.00000
   1                     1
   2                     0
   3                     0
   4                     0
   5                     0
   6                     0
   7                     0
   8                     0
   9                     0
  10                     0
  11                     0
  12                     0
  13                     0
  14                     0
  15                     0
  16                     0
 Sym= A
 Ene=               1
 Spin= Alpha
 Occup=    1.00000
   1                     0
   2                     1
   3                     0
   4                     0
   5                     0
   6                     0
   7                     0
   8                     0
   9                     0
  10                     0
  11                     0
  12                     0
  13                     0
  14                     0
  15                     0
  16                     0
 Sym= A
 Ene=               2
 Spin= Alpha
 Occup=    1.00000
   1                     0
   2                     0
   3                     1
   4                     0
   5                     0
   6                     0
   7                     0
   8                     0
   9                     0
  10                     0
  11                     0
  12                     0
  13                     0
  14                     0
  15                     0
  16                     0
 Sym= A
 Ene=               3
 Spin= Alpha
 Occup=    1.00000
   1                     0
   2                     0
   3                     0
   4                     1
   5                     0
   6                     0
   7                     0
   8                     0
   9                     0
  10                     0
  11                     0
  12                     0
  13                     0
  14                     0
  15                     0
  16                     0
 Sym= A
 Ene=               4
 Spin= Alpha
 Occup=    1.00000
   1                     0
   2                     0
   3                     0
   4                     0
   5                     1
   6                     0
   7                     0
   8                     0
   9                     0
  10                     0
  11                     0
  12                     0
  13                     0
  14                     0
  15                     0
  16                     0
 Sym= A
 Ene=               5
 Spin= Alpha
 Occup=    1.00000
   1                     0
   2                     0
   3                     0
   4                     0
   5                     0
   6                     1
   7                     0
   8                     0
   9                     0
  10                     0
  11                     0
  12                     0
  13                     0
  14                     0
  15                     0
  16                     0
 Sym= A
 Ene=               6
 Spin= Alpha
 Occup=    1.00000
   1                     0
   2                     0
   3                     0
   4                     0
   5                     0
   6                     0
   7                     1
   8                     0
   9                     0
  10                     0
  11                     0
  12                     0
  13                     0
  14                     0
  15                     0
  16                     0
 Sym= A
 Ene=               7
 Spin= Alpha
 Occup=    1.00000
   1                     0
   2                     0
   3                     0
   4                     0
   5                     0
   6                     0
   7                     0
   8                     1
   9                     0
  10                     0
  11                     0
  12                     0
  13                     0
  14                     0
  15                     0
  16                     0
 Sym= A
 Ene=               8
 Spin= Alpha
 Occup=    0.00000
   1                     0
   2                     0
   3                     0
   4                     0
   5                     0
   6                     0
   7                     0
   8                     0
   9                     1
  10                     0
  11                     0
  12                     0
  13                     0
  14                     0
  15                     0
  16                     0
 Sym= A
 Ene=               9
 Spin= Alpha
 Occup=    0.00000
   1                     0
   2                     0
   3                     0
   4                     0
   5                     0
   6                     0
   7                     0
   8                     0
   9                     0
  10                     1
  11                     0
  12                     0
  13                     0
  14                     0
  15                     0
  16                     0
 Sym= A
 Ene=              10
 Spin= Alpha
 Occup=    0.00000
   1                     0
   2                     0
   3                     0
   4                     0
   5                     0
   6                     0
   7                     0
   8                     0
   9                     0
  10                     0
  11                     1
  12                     0
  13                     0
  14                     0
  15                     0
  16                     0
 Sym= A
 Ene=              11
 Spin= Alpha
 Occup=    0.00000
   1                     0
   2                     0
   3                     0
   4                     0
   5                     0
   6                     0
   7                     0
   8                     0
   9                     0
  10                     0
  11                     0
  12                     1
  13                     0
  14                     0
  15                     0
  16                     0
 Sym= A
 Ene=              12
 Spin= Alpha
 Occup=    0.00000
   1                     0
   2                     0
   3                     0
   4                     0
   5                     0
   6                     0
   7                     0
   8                     0
   9                     0
  10                     0
  11                     0
  12                     0
  13                     1
  14                     0
  15                     0
  16                     0
 Sym= A
 Ene=              13
 Spin= Alpha
 Occup=    0.00000
   1                     0
   2                     0
   3                     0
   4                     0
   5                     0
   6                     0
   7                     0
   8                     0
   9                     0
  10                     0
  11                     0
  12                     0
  13                     0
  14                     1
  15                     0
  16                     0
 Sym= A
 Ene=              14
 Spin= Alpha
 Occup=    0.00000
   1                     0
   2                     0
   3                     0
   4                     0
   5                     0
   6                     0
   7                     0
   8                     0
   9                     0
  10                     0
  11                     0
  12                     0
  13                     0
  14                     0
  15                     1
  16                     0
 Sym= A
 Ene=              15
 Spin= Alpha
 Occup=    0.00000
   1                     0
   2                     0
   3                     0
   4                     0
   5                     0
   6                     0
   7                     0
   8                     0
   9                     0
  10                     0
  11                     0
  12                     0
  13                     0
  14                     0
  15                     0
  16                     1
