[Molden Format]
made by pyscf v[2.0.1]
[Atoms] (AU)
He   1   2     1.79952949663957     3.11687647533512     0.48790838810145
He   2   2    -1.79952949663957    -3.11687647533512    -0.48790838810145
He   3   2     1.79952949663957    -3.11687647533512     0.48790838810145
He   4   2     3.59905899327914     0.00000000000000    -0.48790838810145
He   5   2    -1.79952949663957     3.11687647533512    -0.48790838810145
He   6   2    -3.59905899327914     0.00000000000000     0.48790838810145
He   7   2     0.00000000000000     0.00000000000000     1.92109557823284
He   8   2     0.00000000000000     0.00000000000000    -1.92109557823284
[GTO]
1 0
 s    3 1.00
                 38.36   0.040176075383249
                  5.77    0.26136807476949
                  1.24    0.79307123949544
 s    1 1.00
                0.2976                   1
 p    1 1.00
                 1.275                   1

2 0
 s    3 1.00
                 38.36   0.040176075383249
                  5.77    0.26136807476949
                  1.24    0.79307123949544
 s    1 1.00
                0.2976                   1
 p    1 1.00
                 1.275                   1

3 0
 s    3 1.00
                 38.36   0.040176075383249
                  5.77    0.26136807476949
                  1.24    0.79307123949544
 s    1 1.00
                0.2976                   1
 p    1 1.00
                 1.275                   1

4 0
 s    3 1.00
                 38.36   0.040176075383249
                  5.77    0.26136807476949
                  1.24    0.79307123949544
 s    1 1.00
                0.2976                   1
 p    1 1.00
                 1.275                   1

5 0
 s    3 1.00
                 38.36   0.040176075383249
                  5.77    0.26136807476949
                  1.24    0.79307123949544
 s    1 1.00
                0.2976                   1
 p    1 1.00
                 1.275                   1

6 0
 s    3 1.00
                 38.36   0.040176075383249
                  5.77    0.26136807476949
                  1.24    0.79307123949544
 s    1 1.00
                0.2976                   1
 p    1 1.00
                 1.275                   1

7 0
 s    3 1.00
                 38.36   0.040176075383249
                  5.77    0.26136807476949
                  1.24    0.79307123949544
 s    1 1.00
                0.2976                   1
 p    1 1.00
                 1.275                   1

8 0
 s    3 1.00
                 38.36   0.040176075383249
                  5.77    0.26136807476949
                  1.24    0.79307123949544
 s    1 1.00
                0.2976                   1
 p    1 1.00
                 1.275                   1

[5d]
[7f]
[9g]

[MO]
 Sym= A
 Ene=               0
 Spin= Alpha
 Occup=    1.00000
   1       1.2259502609402
   2     -0.45285167881081
   3    0.0010974730503791
   4    0.0019008792696599
   5    0.00044798736763167
   6    0.00063687334778389
   7    -0.0012130209714659
   8    -0.00016907071586808
   9    -0.00029283904704987
  10    4.7849625501625e-05
  11    0.0035484610262727
  12    -0.0080269666571962
  13    -0.00020338471197571
  14    -0.0018038734971705
  15    8.6960618248636e-05
  16    -0.013992030624394
  17     0.037142477020025
  18    -0.0060367387173916
  19      0.01103731346733
  20    0.0035070107146948
  21    -0.013992030480505
  22     0.037142475939536
  23     0.012576962526502
  24    0.00029068775914082
  25    0.0035070104900617
  26    0.0035484609754084
  27    -0.0080269664888909
  28    -0.0014605078702108
  29    -0.0010780730480661
  30    8.696062231073e-05
  31    -0.012308538378102
  32      0.03104827934276
  33    0.0047325781262118
  34    0.0081970655987873
  35    -0.0033443056267153
  36    -0.0055399180556374
  37      0.01171822744179
  38    0.0015263403745753
  39    0.0026436989737627
  40     0.001221954491267
 Sym= A
 Ene=               1
 Spin= Alpha
 Occup=    1.00000
   1     -0.45285167881081
   2       1.2570345418177
   3    -0.002599131985167
   4    -0.0045018291559288
   5    -0.0010797943266157
   6    -0.0012130209714659
   7    0.0024985385983692
   8    0.00035254156823915
   9    0.00061061986452735
  10    -6.4308707232057e-05
  11    -0.0080269666571961
  12     0.019172149553217
  13    0.00053862048536433
  14    0.0043134509503027
  15    -0.00021324376264721
  16      0.03714247699052
  17      -0.1008040862445
  18     0.012320656846171
  19    -0.022543547683634
  20    -0.0071300319353077
  21     0.037142475939536
  22     -0.10080408219022
  23     -0.02568361195094
  24    -0.00060177225782553
  25    -0.0071300314538224
  26    -0.0080269664782928
  27     0.019172149002573
  28     0.003466247731302
  29    0.0026231844009619
  30    -0.0002132437653219
  31     0.030709670947278
  32    -0.080856347555212
  33    -0.0095197498504548
  34    -0.016488690072215
  35     0.006652709161094
  36     0.011569170304672
  37    -0.026699905040513
  38    -0.0028617751200434
  39    -0.0049567397122961
  40    -0.0018745173693494
 Sym= A
 Ene=               2
 Spin= Alpha
 Occup=    1.00000
   1    0.0010974730503791
   2    -0.002599131985167
   3       1.0010643472855
   4    -0.00013759743479143
   5    2.408128018761e-05
   6    0.0001690707158683
   7    -0.00035254156823923
   8    -0.00014586737004843
   9    -4.0813806562038e-06
  10    -1.0491507867413e-05
  11    -0.0002033847119758
  12    0.00053862048536435
  13    0.00030051209597701
  14    0.00013700223501189
  15    -0.00018240502288256
  16      0.00654022465057
  17    -0.013362956886827
  18    0.00032312247536551
  19    -0.00041949583575946
  20    -0.00018143889948759
  21    -0.012576962526503
  22      0.02568361195094
  23    0.0010524163962923
  24    -1.5623139402333e-06
  25    0.00033405578976833
  26    0.0016638925591227
  27    -0.0040048681601402
  28    -0.00060211512051273
  29    -0.00065813427516051
  30    0.00012687649923373
  31    -0.0047392771148123
  32    0.0095780075811753
  33    0.00027253123146738
  34    0.00011228466679084
  35    -5.3007007439402e-05
  36    -0.0012270555528227
  37    0.0021436436003265
  38    0.00056486869694778
  39    -0.00045651758418819
  40    -0.00029165774146322
 Sym= A
 Ene=               3
 Spin= Alpha
 Occup=    1.00000
   1    0.0019008792696599
   2    -0.0045018291559288
   3    -0.00013759743479138
   4       1.0009054635269
   5    4.171004594528e-05
   6    0.00029283904705028
   7    -0.00061061986452763
   8    -4.0813806569381e-06
   9    -0.00015058013567927
  10    -1.8171825525024e-05
  11    0.0018038734971706
  12    -0.0043134509503028
  13    -0.00013700223501462
  14    -0.0009029908904595
  15    4.1192782513471e-05
  16    -0.010746625743252
  17     0.021941775522657
  18    -0.00042262048472583
  19    0.00080931853200495
  20    0.00028098067181549
  21    0.00029068775914051
  22    -0.00060177225782593
  23    1.5623139410342e-06
  24    8.0024448924456e-05
  25    -1.66403638926e-05
  26    0.0007258004039745
  27    -0.0016902663943167
  28    -0.00038412982209572
  29    -3.636561344201e-07
  30    -0.00013737098320419
  31    -0.0082086686554156
  32     0.016589595591381
  33    0.00011228467691745
  34    0.00040218638672548
  35    -9.1810842477953e-05
  36    -0.0021253224800077
  37    0.0037128994910247
  38    -0.00045651758290198
  39    3.7727589204155e-05
  40    -0.00050516601473408
 Sym= A
 Ene=               4
 Spin= Alpha
 Occup=    1.00000
   1    0.00044798736763167
   2    -0.0010797943266157
   3    2.4081280187619e-05
   4    4.1710045945307e-05
   5        1.000225159399
   6    -4.7849625501446e-05
   7    6.4308707232031e-05
   8    -1.0491507866224e-05
   9    -1.8171825525708e-05
  10    0.00010283040765157
  11    8.6960618248849e-05
  12    -0.00021324376264717
  13    -0.00018240502288414
  14    -4.1192782513153e-05
  15    0.00016860985400071
  16    -0.0035070106988051
  17    0.0071300318994095
  18    -0.00015261694688007
  19    0.00029762102571438
  20    0.00012577993805113
  21    -0.0035070104900619
  22    0.0071300314538224
  23    0.00033405578976485
  24    1.664036389659e-05
  25    0.00012577994093092
  26    8.6960602940691e-05
  27    -0.00021324373225656
  28    5.5528511039232e-05
  29    -0.00017856376134714
  30    0.00016860984343179
  31    0.0044140673579614
  32    -0.009038624312222
  33    -0.00013651845184186
  34    -0.00023645689354708
  35    0.00025353052024601
  36    -0.0024821153701249
  37    0.0049119469800981
  38    -5.7351774592294e-05
  39    -9.9336187235337e-05
  40    0.00013471482319055
 Sym= A
 Ene=               5
 Spin= Alpha
 Occup=    1.00000
   1    0.00063687334778387
   2    -0.0012130209714659
   3    0.0001690707158683
   4    0.00029283904705028
   5    -4.7849625501445e-05
   6       1.2259502609402
   7     -0.45285167881081
   8    -0.0010974730503794
   9    -0.0019008792696603
  10    -0.00044798736763172
  11    -0.013992030480505
  12     0.037142475939535
  13    -0.012576962526503
  14    -0.00029068775914082
  15    -0.0035070104900618
  16    0.0035484609754082
  17    -0.008026966488891
  18    0.0014605078702105
  19    0.0010780730480662
  20    -8.696062231089e-05
  21    0.0035484610262721
  22    -0.0080269666571961
  23    0.00020338471197586
  24    0.0018038734971702
  25    -8.6960618248803e-05
  26    -0.013992030624394
  27     0.037142477020024
  28     0.006036738717392
  29    -0.011037313467331
  30    -0.0035070107146948
  31    -0.0055399180556378
  32      0.01171822744179
  33    -0.0015263403745757
  34    -0.0026436989737634
  35    -0.0012219544912671
  36    -0.012308538378101
  37      0.03104827934276
  38    -0.0047325781262119
  39    -0.0081970655987874
  40    0.0033443056267155
 Sym= A
 Ene=               6
 Spin= Alpha
 Occup=    1.00000
   1    -0.001213020971466
   2    0.0024985385983692
   3    -0.00035254156823923
   4    -0.00061061986452763
   5    6.430870723203e-05
   6     -0.45285167881081
   7       1.2570345418177
   8    0.0025991319851671
   9    0.0045018291559285
  10    0.0010797943266157
  11     0.037142475939536
  12     -0.10080408219022
  13      0.02568361195094
  14    0.0006017722578255
  15    0.0071300314538225
  16    -0.0080269664782931
  17     0.019172149002573
  18    -0.0034662477313021
  19    -0.0026231844009618
  20    0.00021324376532189
  21    -0.0080269666571963
  22     0.019172149553217
  23    -0.00053862048536408
  24    -0.0043134509503026
  25    0.00021324376264721
  26      0.03714247699052
  27      -0.1008040862445
  28    -0.012320656846171
  29     0.022543547683634
  30    0.0071300319353078
  31     0.011569170304672
  32    -0.026699905040513
  33    0.0028617751200435
  34    0.0049567397122963
  35    0.0018745173693494
  36     0.030709670947279
  37    -0.080856347555211
  38    0.0095197498504548
  39     0.016488690072215
  40    -0.0066527091610939
 Sym= A
 Ene=               7
 Spin= Alpha
 Occup=    1.00000
   1    -0.00016907071586808
   2    0.00035254156823915
   3    -0.00014586737004842
   4    -4.0813806569493e-06
   5    -1.0491507866222e-05
   6    -0.0010974730503794
   7    0.0025991319851671
   8       1.0010643472855
   9    -0.00013759743478401
  10    2.4081280190475e-05
  11     0.012576962526503
  12     -0.02568361195094
  13    0.0010524163962904
  14    -1.562313938903e-06
  15    0.00033405578976604
  16    -0.0016638925591226
  17    0.0040048681601403
  18    -0.00060211512051912
  19    -0.00065813427516954
  20    0.00012687649923423
  21    0.00020338471197556
  22    -0.00053862048536428
  23    0.00030051209597834
  24    0.00013700223502401
  25    -0.00018240502288079
  26    -0.0065402246505699
  27     0.013362956886827
  28    0.00032312247536741
  29    -0.00041949583575945
  30    -0.00018143889949341
  31    0.0012270555528228
  32    -0.0021436436003266
  33    0.00056486869694774
  34    -0.00045651758418722
  35    -0.00029165774146419
  36    0.0047392771148121
  37    -0.0095780075811749
  38    0.00027253123146374
  39    0.00011228466679081
  40    -5.3007007442956e-05
 Sym= A
 Ene=               8
 Spin= Alpha
 Occup=    0.00000
   1    -0.00029283904704987
   2    0.00061061986452735
   3    -4.081380656177e-06
   4    -0.00015058013567926
   5    -1.8171825525719e-05
   6    -0.0019008792696603
   7    0.0045018291559285
   8    -0.00013759743478397
   9       1.0009054635269
  10    4.1710045945113e-05
  11    -0.00029068775914105
  12    0.0006017722578259
  13    1.5623139399268e-06
  14    8.0024448925651e-05
  15    -1.6640363898404e-05
  16    -0.00072580040397472
  17    0.0016902663943167
  18    -0.0003841298220876
  19    -3.6365612946504e-07
  20    -0.00013737098320196
  21    -0.0018038734971705
  22    0.0043134509503029
  23    -0.00013700223501912
  24    -0.00090299089046308
  25    4.1192782515059e-05
  26     0.010746625743252
  27    -0.021941775522657
  28    -0.00042262048472403
  29    0.00080931853200583
  30    0.00028098067181131
  31    0.0021253224800079
  32    -0.0037128994910249
  33    -0.00045651758290246
  34    3.7727589202967e-05
  35    -0.00050516601473711
  36    0.0082086686554153
  37     -0.01658959559138
  38    0.00011228467691568
  39    0.00040218638671883
  40    -9.1810842481053e-05
 Sym= A
 Ene=               9
 Spin= Alpha
 Occup=    0.00000
   1    4.7849625501625e-05
   2    -6.4308707232059e-05
   3    -1.0491507867426e-05
   4    -1.8171825525025e-05
   5    0.00010283040765157
   6    -0.00044798736763172
   7    0.0010797943266157
   8    2.4081280190473e-05
   9    4.1710045945111e-05
  10        1.000225159399
  11     0.003507010490062
  12    -0.0071300314538224
  13    0.0003340557897659
  14    1.6640363894649e-05
  15    0.00012577994092921
  16    -8.6960602940639e-05
  17    0.00021324373225661
  18    5.5528511039509e-05
  19    -0.00017856376134525
  20    0.00016860984343278
  21    -8.6960618248824e-05
  22    0.00021324376264728
  23    -0.00018240502288742
  24    -4.1192782514934e-05
  25    0.00016860985400151
  26    0.0035070106988051
  27    -0.0071300318994095
  28    -0.000152616946882
  29    0.0002976210257117
  30    0.00012577993805002
  31    0.0024821153701255
  32    -0.0049119469800985
  33    -5.7351774592716e-05
  34    -9.9336187236381e-05
  35    0.00013471482318974
  36    -0.0044140673579615
  37    0.0090386243122221
  38    -0.00013651845184216
  39    -0.00023645689354785
  40    0.00025353052024243
 Sym= A
 Ene=              10
 Spin= Alpha
 Occup=    0.00000
   1    0.0035484610262726
   2    -0.0080269666571961
   3    -0.0002033847119758
   4    0.0018038734971706
   5    8.6960618248851e-05
   6    -0.013992030480505
   7     0.037142475939536
   8     0.012576962526503
   9    -0.00029068775914105
  10     0.003507010490062
  11       1.2259502609402
  12     -0.45285167881082
  13    0.0010974730503796
  14    -0.0019008792696608
  15    0.00044798736763209
  16    -0.013992030624393
  17     0.037142477020023
  18    -0.0060367387173916
  19    -0.011037313467331
  20    0.0035070107146953
  21    0.00063687334778495
  22    -0.001213020971469
  23    -0.00016907071586756
  24    0.00029283904704903
  25    4.7849625501277e-05
  26    0.0035484609754097
  27    -0.0080269664888921
  28    -0.0014605078702107
  29    0.0010780730480659
  30    8.6960622311061e-05
  31    -0.012308538378103
  32     0.031048279342764
  33    0.0047325781262121
  34    -0.0081970655987881
  35    -0.0033443056267153
  36    -0.0055399180556404
  37     0.011718227441793
  38    0.0015263403745757
  39    -0.0026436989737627
  40    0.0012219544912677
 Sym= A
 Ene=              11
 Spin= Alpha
 Occup=    0.00000
   1    -0.0080269666571962
   2     0.019172149553217
   3    0.00053862048536436
   4    -0.0043134509503028
   5    -0.00021324376264717
   6     0.037142475939536
   7     -0.10080408219022
   8     -0.02568361195094
   9    0.0006017722578259
  10    -0.0071300314538224
  11     -0.45285167881082
  12       1.2570345418177
  13    -0.0025991319851674
  14    0.0045018291559288
  15    -0.0010797943266157
  16     0.037142476990518
  17     -0.10080408624449
  18     0.012320656846171
  19     0.022543547683634
  20    -0.0071300319353077
  21    -0.0012130209714688
  22    0.0024985385983707
  23    0.00035254156823915
  24    -0.00061061986452748
  25    -6.4308707232106e-05
  26    -0.008026966478294
  27     0.019172149002575
  28    0.0034662477313022
  29    -0.002623184400962
  30    -0.00021324376532199
  31     0.030709670947283
  32    -0.080856347555214
  33    -0.0095197498504549
  34     0.016488690072214
  35    0.0066527091610941
  36     0.011569170304675
  37    -0.026699905040517
  38    -0.0028617751200436
  39     0.004956739712296
  40    -0.0018745173693496
 Sym= A
 Ene=              12
 Spin= Alpha
 Occup=    0.00000
   1    -0.00020338471197571
   2    0.00053862048536433
   3    0.00030051209597702
   4    -0.00013700223501461
   5    -0.00018240502288415
   6    -0.012576962526503
   7      0.02568361195094
   8    0.0010524163962904
   9    1.5623139399327e-06
  10    0.00033405578976591
  11    0.0010974730503796
  12    -0.0025991319851674
  13       1.0010643472855
  14    0.00013759743479119
  15    2.4081280189049e-05
  16    0.0065402246505699
  17    -0.013362956886828
  18    0.00032312247536396
  19    0.00041949583575803
  20    -0.0001814388994909
  21    0.00016907071586833
  22    -0.00035254156823931
  23    -0.00014586737004732
  24    4.0813806581429e-06
  25    -1.0491507867205e-05
  26    0.0016638925591226
  27    -0.0040048681601402
  28    -0.00060211512051726
  29    0.00065813427515746
  30    0.00012687649923561
  31    -0.0047392771148124
  32    0.0095780075811752
  33    0.00027253123146111
  34    -0.00011228466679195
  35    -5.3007007440511e-05
  36    -0.001227055552823
  37    0.0021436436003267
  38    0.0005648686969459
  39    0.00045651758419354
  40    -0.00029165774146113
 Sym= A
 Ene=              13
 Spin= Alpha
 Occup=    0.00000
   1    -0.0018038734971705
   2    0.0043134509503027
   3    0.00013700223501189
   4    -0.00090299089045951
   5    -4.1192782513148e-05
   6    -0.00029068775914082
   7    0.0006017722578255
   8    -1.5623139389177e-06
   9    8.0024448925642e-05
  10    1.664036389466e-05
  11    -0.0019008792696608
  12    0.0045018291559288
  13    0.0001375974347912
  14       1.0009054635269
  15    -4.1710045947006e-05
  16     0.010746625743252
  17    -0.021941775522657
  18    0.00042262048472634
  19    0.00080931853200395
  20    -0.00028098067180585
  21    -0.00029283904704981
  22    0.00061061986452739
  23    4.0813806566865e-06
  24    -0.00015058013568274
  25    1.8171825522247e-05
  26    -0.00072580040397447
  27    0.0016902663943165
  28    0.0003841298220955
  29    -3.6365613524418e-07
  30     0.000137370983207
  31    0.0082086686554152
  32     -0.01658959559138
  33    -0.0001122846769127
  34    0.00040218638672162
  35    9.1810842481042e-05
  36     0.002125322480008
  37    -0.0037128994910247
  38    0.00045651758290536
  39    3.772758920013e-05
  40    0.00050516601473935
 Sym= A
 Ene=              14
 Spin= Alpha
 Occup=    0.00000
   1    8.6960618248638e-05
   2    -0.00021324376264721
   3    -0.00018240502288256
   4    4.1192782513494e-05
   5    0.00016860985400075
   6    -0.0035070104900618
   7    0.0071300314538225
   8    0.00033405578976603
   9    -1.6640363898437e-05
  10    0.00012577994092922
  11    0.00044798736763209
  12    -0.0010797943266157
  13    2.408128018905e-05
  14    -4.1710045946993e-05
  15        1.000225159399
  16    -0.003507010698805
  17    0.0071300318994095
  18    -0.0001526169468812
  19    -0.00029762102571063
  20    0.00012577993804937
  21    -4.7849625501672e-05
  22    6.4308707232265e-05
  23    -1.0491507866391e-05
  24    1.8171825522315e-05
  25    0.00010283040765291
  26    8.6960602940472e-05
  27    -0.00021324373225648
  28    5.552851103958e-05
  29    0.00017856376134942
  30    0.00016860984343127
  31    0.0044140673579616
  32    -0.0090386243122222
  33    -0.0001365184518428
  34    0.00023645689354876
  35    0.00025353052024291
  36    -0.0024821153701252
  37    0.0049119469800983
  38    -5.7351774594616e-05
  39    9.9336187238264e-05
  40    0.00013471482318636
 Sym= A
 Ene=              15
 Spin= Alpha
 Occup=    0.00000
   1    -0.013992030624394
   2      0.03714247699052
   3      0.00654022465057
   4    -0.010746625743252
   5    -0.0035070106988051
   6    0.0035484609754081
   7    -0.0080269664782931
   8    -0.0016638925591226
   9    -0.00072580040397472
  10    -8.6960602940641e-05
  11    -0.013992030624393
  12     0.037142476990518
  13    0.0065402246505699
  14     0.010746625743252
  15    -0.003507010698805
  16       1.2259502609295
  17     -0.45285167881338
  18    0.0021949462484078
  19    -2.822115572704e-16
  20    -0.00044798742025878
  21    0.0035484609754088
  22    -0.0080269664782946
  23    -0.0016638925591226
  24    0.00072580040397494
  25    -8.6960602940328e-05
  26    0.00063687321736736
  27    -0.0012130206673122
  28    -0.00033814133608954
  29    -2.7297566641128e-18
  30    -4.7849632374269e-05
  31    -0.005539917694216
  32     0.011718226490105
  33    0.0030526803905186
  34    2.0816395105661e-16
  35    -0.0012219543082564
  36    -0.012308538161662
  37     0.031048278349729
  38    0.0094651555594373
  39    1.0674686161089e-16
  40    0.0033443053815393
 Sym= A
 Ene=              16
 Spin= Alpha
 Occup=    0.00000
   1     0.037142477020025
   2      -0.1008040862445
   3    -0.013362956886827
   4     0.021941775522657
   5    0.0071300318994095
   6    -0.008026966488891
   7     0.019172149002573
   8    0.0040048681601403
   9    0.0016902663943167
  10    0.00021324373225662
  11     0.037142477020023
  12     -0.10080408624449
  13    -0.013362956886828
  14    -0.021941775522657
  15    0.0071300318994095
  16     -0.45285167881338
  17       1.2570345419055
  18    -0.0051982643788028
  19    3.7194998464645e-16
  20    0.0010797944695705
  21    -0.0080269664888922
  22     0.019172149002574
  23    0.0040048681601403
  24    -0.0016902663943165
  25    0.00021324373225661
  26    -0.0012130206673123
  27    0.0024985378576645
  28    0.00070508291832401
  29    -1.9917030422049e-16
  30    6.4308728910694e-05
  31     0.011569169360578
  32    -0.026699902485349
  33    -0.005723549495468
  34    1.547597981401e-17
  35    0.0018745170041945
  36     0.030709669916686
  37    -0.080856344076793
  38    -0.019039498247607
  39    9.1772519463256e-17
  40    -0.0066527086461274
 Sym= A
 Ene=              17
 Spin= Alpha
 Occup=    0.00000
   1    -0.0060367387173916
   2     0.012320656846171
   3    0.00032312247536552
   4    -0.00042262048472584
   5    -0.00015261694688008
   6    0.0014605078702105
   7    -0.0034662477313021
   8    -0.00060211512051914
   9    -0.0003841298220876
  10    5.5528511039516e-05
  11    -0.0060367387173916
  12     0.012320656846171
  13    0.00032312247536397
  14    0.00042262048472634
  15    -0.00015261694688124
  16    0.0021949462484078
  17    -0.0051982643788028
  18       1.0008260215705
  19    1.3204679668264e-15
  20    -4.816263188673e-05
  21    0.0014605078702108
  22    -0.0034662477313023
  23    -0.00060211512051576
  24    0.00038412982208361
  25    5.5528511038889e-05
  26    0.00033814133608834
  27    -0.00070508291832407
  28    -0.00015293648441322
  29    -8.3493137351903e-16
  30    2.0983008047663e-05
  31    -0.0024541107880656
  32    0.0042872865644995
  33    -0.00022584298986614
  34    -2.475501699936e-15
  35    0.00058331547115057
  36    -0.0094785536006819
  37     0.019156013878828
  38    0.00046701387809103
  39    -1.5608679043574e-15
  40    0.00010601398616628
 Sym= A
 Ene=              18
 Spin= Alpha
 Occup=    0.00000
   1      0.01103731346733
   2    -0.022543547683634
   3    -0.00041949583575946
   4    0.00080931853200495
   5    0.00029762102571438
   6    0.0010780730480662
   7    -0.0026231844009618
   8    -0.00065813427516953
   9    -3.6365612945196e-07
  10    -0.00017856376134528
  11    -0.011037313467331
  12     0.022543547683634
  13    0.00041949583575801
  14    0.00080931853200395
  15    -0.00029762102571063
  16    -2.8221157958988e-16
  17    3.719499850679e-16
  18    1.3204677944773e-15
  19       1.0011437892682
  20    2.4829519940134e-15
  21    -0.0010780730480659
  22    0.0026231844009618
  23    0.00065813427517263
  24    -3.6365613272601e-07
  25    0.00017856376135073
  26    1.2000132300278e-16
  27    -1.8975643087883e-16
  28    -1.0663872320872e-16
  29    -0.00014351098362984
  30    -8.6392329964968e-16
  31    -5.4988410529933e-17
  32    -2.9766633313818e-16
  33    2.6105633445358e-15
  34    0.00082843928167589
  35    2.8124318861135e-15
  36    3.8844680704669e-16
  37    -4.3673857859019e-16
  38    3.7975500789589e-15
  39    0.00020770366193299
  40    1.0344367062284e-16
 Sym= A
 Ene=              19
 Spin= Alpha
 Occup=    0.00000
   1    0.0035070107146948
   2    -0.0071300319353077
   3    -0.00018143889948759
   4    0.00028098067181548
   5    0.00012577993805114
   6    -8.6960622310891e-05
   7    0.00021324376532189
   8    0.00012687649923424
   9    -0.00013737098320196
  10    0.00016860984343275
  11    0.0035070107146953
  12    -0.0071300319353077
  13    -0.00018143889949088
  14    -0.00028098067180585
  15    0.00012577993804936
  16    -0.00044798742025878
  17    0.0010797944695705
  18    -4.8162631886724e-05
  19    2.4829522264946e-15
  20       1.0002251593921
  21    -8.6960622310473e-05
  22    0.00021324376532196
  23    0.00012687649923722
  24    0.00013737098320693
  25    0.00016860984343196
  26    4.7849632374223e-05
  27    -6.4308728910782e-05
  28    2.0983008047563e-05
  29    1.1562901499234e-16
  30    0.00010283039427417
  31    0.0024821151487398
  32    -0.0049119465104765
  33    0.0001147035662202
  34    1.5485271838396e-15
  35    0.00013471479842088
  36    -0.0044140671105802
  37    0.0090386237973641
  38    0.00027303686952743
  39    -1.86141269301e-15
  40    0.00025353050325015
 Sym= A
 Ene=              20
 Spin= Alpha
 Occup=    0.00000
   1    -0.013992030480505
   2     0.037142475939536
   3    -0.012576962526503
   4    0.00029068775914051
   5    -0.0035070104900619
   6    0.0035484610262721
   7    -0.0080269666571963
   8    0.00020338471197556
   9    -0.0018038734971705
  10    -8.6960618248823e-05
  11    0.00063687334778497
  12    -0.0012130209714688
  13    0.00016907071586833
  14    -0.00029283904704982
  15    -4.7849625501668e-05
  16    0.0035484609754088
  17    -0.0080269664888923
  18    0.0014605078702108
  19    -0.0010780730480659
  20    -8.6960622310473e-05
  21       1.2259502609402
  22     -0.45285167881082
  23    -0.0010974730503795
  24    0.0019008792696603
  25    -0.00044798736763196
  26    -0.013992030624393
  27     0.037142477020023
  28    0.0060367387173923
  29     0.011037313467331
  30    -0.0035070107146949
  31    -0.0055399180556387
  32     0.011718227441794
  33    -0.0015263403745752
  34    0.0026436989737629
  35    -0.0012219544912671
  36    -0.012308538378104
  37     0.031048279342763
  38    -0.0047325781262117
  39    0.0081970655987879
  40    0.0033443056267155
 Sym= A
 Ene=              21
 Spin= Alpha
 Occup=    0.00000
   1     0.037142475939536
   2     -0.10080408219022
   3      0.02568361195094
   4    -0.00060177225782593
   5    0.0071300314538224
   6    -0.0080269666571961
   7     0.019172149553217
   8    -0.00053862048536428
   9    0.0043134509503029
  10    0.00021324376264728
  11    -0.0012130209714691
  12    0.0024985385983707
  13    -0.00035254156823931
  14    0.00061061986452739
  15    6.4308707232265e-05
  16    -0.0080269664782946
  17     0.019172149002574
  18    -0.0034662477313023
  19    0.0026231844009618
  20    0.00021324376532196
  21     -0.45285167881082
  22       1.2570345418177
  23    0.0025991319851674
  24    -0.0045018291559289
  25    0.0010797943266156
  26     0.037142476990518
  27     -0.10080408624449
  28     -0.01232065684617
  29    -0.022543547683634
  30    0.0071300319353077
  31     0.011569170304676
  32    -0.026699905040515
  33    0.0028617751200435
  34    -0.0049567397122962
  35    0.0018745173693494
  36     0.030709670947282
  37    -0.080856347555215
  38    0.0095197498504548
  39    -0.016488690072215
  40    -0.0066527091610941
 Sym= A
 Ene=              22
 Spin= Alpha
 Occup=    0.00000
   1     0.012576962526502
   2     -0.02568361195094
   3    0.0010524163962924
   4    1.5623139410187e-06
   5    0.00033405578976486
   6    0.00020338471197585
   7    -0.00053862048536408
   8    0.00030051209597834
   9    -0.00013700223501911
  10    -0.00018240502288742
  11    -0.00016907071586755
  12    0.00035254156823915
  13    -0.00014586737004731
  14    4.0813806566868e-06
  15    -1.0491507866386e-05
  16    -0.0016638925591226
  17    0.0040048681601403
  18    -0.00060211512051576
  19    0.00065813427517261
  20    0.00012687649923721
  21    -0.0010974730503795
  22    0.0025991319851674
  23       1.0010643472855
  24    0.00013759743478508
  25    2.4081280188545e-05
  26     -0.00654022465057
  27     0.013362956886827
  28    0.00032312247536266
  29    0.0004194958357596
  30    -0.00018143889948855
  31    0.0012270555528231
  32    -0.0021436436003269
  33    0.00056486869694523
  34    0.00045651758419371
  35    -0.00029165774146282
  36    0.0047392771148125
  37    -0.0095780075811753
  38    0.00027253123146459
  39    -0.00011228466678857
  40    -5.3007007439348e-05
 Sym= A
 Ene=              23
 Spin= Alpha
 Occup=    0.00000
   1    0.00029068775914082
   2    -0.00060177225782553
   3    -1.5623139402367e-06
   4    8.0024448924465e-05
   5    1.6640363896583e-05
   6    0.0018038734971702