 &FCI NORB=  24,NELEC=24,MS2=0,
  ORBSYM=1,1,1,1,1,1,1,1,1,1,1,1,1,1,1,1,1,1,1,1,1,1,1,1,
  ISYM=1,
 &END
 0.381373418916299    1    1    1    1
 -0.002039036343607763    2    1    1    1
 0.001173368765141957    2    1    2    1
 0.1444508618880642    2    2    1    1
 -0.001914121652230392    2    2    2    1
 0.3832893139256584    2    2    2    2
 0.002078851422936703    3    1    1    1
 -0.0002191044908413221    3    1    2    1
 -0.0003227462392249161    3    1    2    2
 0.0006401778532409358    3    1    3    1
 -0.0005835276639738787    3    2    1    1
 -1.160057174334391e-05    3    2    2    1
 0.0002742397976867173    3    2    2    2
 1.471544649574385e-05    3    2    3    1
 4.504613691865662e-06    3    2    3    2
 0.1103882306912366    3    3    1    1
 0.0006787794307185764    3    3    2    1
 0.08975321911036335    3    3    2    2
 0.002526495024108179    3    3    3    1
 0.0002757209637418474    3    3    3    2
 0.383307230017101    3    3    3    3
 0.002597244268474406    4    1    1    1
 -2.174590412893805e-05    4    1    2    1
 0.001016954400514079    4    1    2    2
 0.0001174422214296258    4    1    3    1
 -2.769596520821072e-06    4    1    3    2
 -0.0002984547685975174    4    1    3    3
 0.0006431177516727729    4    1    4    1
 -0.0002434194465824171    4    2    1    1
 1.130355860642194e-05    4    2    2    1
 -0.0002328570160907711    4    2    2    2
 -1.017767387625466e-05    4    2    3    1
 4.580066872694702e-07    4    2    3    2
 4.017900579367726e-05    4    2    3    3
 -4.132426220158533e-06    4    2    4    1
 2.379129640356519e-06    4    2    4    2
 0.0001274766974381671    4    3    1    1
 -1.419223988288346e-06    4    3    2    1
 3.975619888281666e-05    4    3    2    2
 4.383158743816119e-06    4    3    3    1
 4.635220124127177e-07    4    3    3    2
 -0.0002304934530083587    4    3    3    3
 1.620291965423803e-05    4    3    4    1
 -7.412676010494354e-07    4    3    4    2
 2.361811208117477e-06    4    3    4    3
 0.1101432129817515    4    4    1    1
 -0.0005017739411894958    4    4    2    1
 0.06289558824752739    4    4    2    2
 4.720565008333984e-05    4    4    3    1
 -0.0001302700291371553    4    4    3    2
 0.06290026180849698    4    4    3    3
 0.002154837552908271    4    4    4    1
 7.034245322676556e-05    4    4    4    2
 7.318144054765856e-05    4    4    4    3
 0.384449211104449    4    4    4    4
 0.002597244268474536    5    1    1    1
 -0.0006475530845576859    5    1    2    1
 -0.003832039226771606    5    1    2    2
 0.0001685567437977343    5    1    3    1
 -2.564585686461255e-06    5    1    3    2
 -0.0006604702023254713    5    1    3    3
 7.336158153188822e-06    5    1    4    1
 -3.141373987532325e-06    5    1    4    2
 1.272839175677184e-06    5    1    4    3
 0.0006309210906832835    5    1    4    4
 0.0006431177516727659    5    1    5    1
 -0.01193908603427148    5    2    1    1
 -0.002253046743832504    5    2    2    1
 0.01764647010772604    5    2    2    2
 1.161120218428464e-06    5    2    3    1
 7.951485914200133e-05    5    2    3    2
 -0.0006876647321824879    5    2    3    3
 -0.000163732398563055    5    2    4    1
 6.595551032856807e-05    5    2    4    2
 -7.545463620404403e-06    5    2    4    3
 -0.002951398540000516    5    2    4    4
 0.001093222209273097    5    2    5    1
 0.02899963658897445    5    2    5    2
 0.0004186701008510826    5    3    1    1
 -5.52495972953797e-06    5    3    2    1
 7.476149067002516e-05    5    3    2    2
 -3.247494490764821e-06    5    3    3    1
 -2.702546207153349e-06    5    3    3    2
 -0.000156181501074942    5    3    3    3
 1.850055929836195e-06    5    3    4    1
 -4.335552117650545e-07    5    3    4    2
 -6.375129984772302e-07    5    3    4    3
 9.386046736445956e-05    5    3    4    4
 2.230020618261419e-07    5    3    5    1
 5.771680573684287e-05    5    3    5    2
 2.644291002838885e-06    5    3    5    3
 3.281176463192526e-05    5    4    1    1
 -1.442446680659919e-05    5    4    2    1
 0.0001506985823547923    5    4    2    2
 9.701038601004425e-06    5    4    3    1
 2.667548653723806e-07    5    4    3    2
 -9.874639389915301e-05    5    4    3    3
 9.982561508608553e-06    5    4    4    1
 -1.247458298904344e-06    5    4    4    2
 8.249887719452291e-07    5    4    4    3
 0.0001137824782773226    5    4    4    4
 9.982561508608646e-06    5    4    5    1
 9.436008509037581e-05    5    4    5    2
 3.168431503789278e-07    5    4    5    3
 1.799958854770327e-06    5    4    5    4
 0.1101432129817512    5    5    1    1
 -4.725927415180324e-05    5    5    2    1
 0.2535375813659659    5    5    2    2
 -1.027126559868287e-07    5    5    3    1
 0.0002809606841348444    5    5    3    2
 0.07039924605020385    5    5    3    3
 0.0006309210906832596    5    5    4    1
 6.78454557628272e-05    5    5    4    2
 1.997811185600976e-05    5    5    4    3
 0.05776598447218223    5    5    4    4
 0.00215483755290831    5    5    5    1
 0.01510091722035093    5    5    5    2
 -0.0002286240654948013    5    5    5    3
 0.0001137824782773333    5    5    5    4
 0.3844492111044487    5    5    5    5
 -0.002592770046036476    6    1    1    1
 0.0001679929451490955    6    1    2    1
 0.0001668802451458718    6    1    2    2
 -0.0003127821973770635    6    1    3    1
 -1.313029012558438e-06    6    1    3    2
 0.002953819326466846    6    1    3    3
 -0.0001350498177755362    6    1    4    1
 9.165978292211627e-06    6    1    4    2
 -9.394489254430113e-06    6    1    4    3
 -6.117308618175962e-05    6    1    4    4
 -0.0001350498177755356    6    1    5    1
 7.370842612357578e-05    6    1    5    2
 -1.217977903095404e-06    6    1    5    3
 -8.385541931647993e-06    6    1    5    4
 -6.117308618176366e-05    6    1    5    5
 0.0003855512274033596    6    1    6    1
 0.0004253449146904989    6    2    1    1
 -2.707621000651797e-06    6    2    2    1
 -0.0001566694377806061    6    2    2    2
 1.806197955672648e-06    6    2    3    1
 -2.717479500089412e-06    6    2    3    2
 7.431406772870591e-05    6    2    3    3
 1.960588560670316e-06    6    2    4    1
 -6.367769136649485e-07    6    2    4    2
 -4.37929128296992e-07    6    2    4    3
 9.443379373788272e-05    6    2    4    4
 6.459327535059683e-06    6    2    5    1
 -4.014170001180354e-05    6    2    5    2
 1.847969989359874e-06    6    2    5    3
 -6.272853566038861e-10    6    2    5    4
 -0.0002456933013976196    6    2    5    5
 4.045120504386849e-06    6    2    6    1
 2.669832197992173e-06    6    2    6    2
 -0.006137720267212283    6    3    1    1
 -5.674236461824144e-05    6    3    2    1
 -0.0007232222375690762    6    3    2    2
 0.001946333607545517    6    3    3    1
 7.970964963147702e-05    6    3    3    2
 0.01764382345975607    6    3    3    3
 7.232568944824064e-05    6    3    4    1
 -7.617501947454902e-06    6    3    4    2
 6.674413742124082e-05    6    3    4    3
 -0.002962549166486131    6    3    4    4
 -5.946458885574685e-06    6    3    5    1
 0.000368026745339746    6    3    5    2
 -4.024019662349524e-05    6    3    5    3
 1.129465436904646e-05    6    3    5    4
 -0.0003751978485514528    6    3    5    5
 -0.0006438786192628973    6    3    6    1
 5.708310396362345e-05    6    3    6    2
 0.02899771513156141    6    3    6    3
 -0.000270341885019751    6    4    1    1
 1.006668390377155e-06    6    4    2    1
 -9.864450523348194e-05    6    4    2    2
 1.832350327944619e-06    6    4    3    1
 2.6270396277902e-07    6    4    3    2
 0.000151481185647379    6    4    3    3
 -7.699469474852245e-06    6    4    4    1
 8.295667945252017e-07    6    4    4    2
 -1.241485800037973e-06    6    4    4    3
 0.0001105305783729444    6    4    4    4
 -1.285269441546948e-06    6    4    5    1
 1.124270176117786e-05    6    4    5    2
 3.230665487909123e-09    6    4    5    3
 -5.4541386587638e-07    6    4    5    4
 -5.735700137083164e-05    6    4    5    5
 2.267563794129744e-06    6    4    6    1
 3.201968274024631e-07    6    4    6    2
 9.414388365616099e-05    6    4    6    3
 1.798991109298727e-06    6    4    6    4
 -0.0002703418850197517    6    5    1    1
 1.123868907414148e-05    6    5    2    1
 -3.295497925037389e-05    6    5    2    2
 -6.233315780629255e-06    6    5    3    1
 1.473185704304096e-06    6    5    3    2
 -3.28030516911002e-05    6    5    3    3
 -1.285269441546779e-06    6    5    4    1
 3.733045591347297e-07    6    5    4    2
 3.740910385501694e-07    6    5    4    3
 -5.735700137083498e-05    6    5    4    4
 -7.69946947485254e-06    6    5    5    1
 -8.267065470296278e-05    6    5    5    2
 -1.695279246627604e-06    6    5    5    3
 -5.45413865876377e-07    6    5    5    4
 0.0001105305783729233    6    5    5    5
 2.267563794129952e-06    6    5    6    1
 -1.701617038247724e-06    6    5    6    2
 -8.218457369927026e-05    6    5    6    3
 -5.462488885110693e-07    6    5    6    4
 1.798991109298705e-06    6    5    6    5
 0.08610125856087063    6    6    1    1
 0.0003194583564783722    6    6    2    1
 0.07040007225611143    6    6    2    2
 0.0008456246256514366    6    6    3    1
 0.0002805662621217142    6    6    3    2
 0.2535350202843332    6    6    3    3
 -0.0003233859550813496    6    6    4    1
 2.031835123524246e-05    6    6    4    2
 6.867579024350189e-05    6    6    4    3
 0.05783600759803809    6    6    4    4
 -0.0003233859550813405    6    6    5    1
 -0.0003573947881272119    6    6    5    2
 -0.000244615723462391    6    6    5    3
 -5.757645092370196e-05    6    6    5    4
 0.0578360075980382    6    6    5    5
 -0.002651963022984491    6    6    6    1
 -0.0002311335935662263    6    6    6    2
 0.01510442305954258    6    6    6    3
 0.0001117934658736963    6    6    6    4
 0.0001117934658736598    6    6    6    5
 0.3844195370437803    6    6    6    6
 0.002078851422936641    7    1    1    1
 -0.0001498853563582375    7    1    2    1
 -0.0001827938385051457    7    1    2    2
 0.0003695285347092043    7    1    3    1
 6.770654070882179e-06    7    1    3    2
 -0.00297690271805773    7    1    3    3
 0.0001685567437977318    7    1    4    1
 -1.006623258093499e-05    7    1    4    2
 1.020540619896369e-05    7    1    4    3
 -1.027126559935982e-07    7    1    4    4
 0.0001174422214296236    7    1    5    1
 -9.119746598544228e-05    7    1    5    2
 -2.838228473151897e-06    7    1    5    3
 9.701038601004242e-06    7    1    5    4
 4.720565008333551e-05    7    1    5    5
 -0.0003127821973770593    7    1    6    1
 -5.50276849907601e-06    7    1    6    2
 0.000144209316990875    7    1    6    3
 -6.233315780629208e-06    7    1    6    4
 1.832350327944757e-06    7    1    6    5
 0.0008456246256513785    7    1    6    6
 0.000640177853240923    7    1    7    1
 -0.0003008002876755704    7    2    1    1
 1.729424862809724e-05    7    2    2    1
 -7.164312780360912e-05    7    2    2    2
 -6.091703602925081e-06    7    2    3    1
 2.104116431767968e-06    7    2    3    2
 8.314882711265147e-05    7    2    3    3
 -2.222752376899018e-06    7    2    4    1
 9.845525110933372e-07    7    2    4    2
 1.438729303681335e-07    7    2    4    3
 -5.16991900668594e-05    7    2    4    4
 -8.871235919619911e-06    7    2    5    1
 -5.515214670841208e-06    7    2    5    2
 -1.801366753332831e-06    7    2    5    3
 -4.034542088995771e-07    7    2    5    4
 0.0001383939812507115    7    2    5    5
 6.904211563226815e-06    7    2    6    1
 -1.848281233418787e-06    7    2    6    2
 -3.88445075767844e-05    7    2    6    3
 -2.449065297634034e-07    7    2    6    4
 1.459795867359229e-06    7    2    6    5
 1.324633680480452e-05    7    2    6    6
 8.266529616940397e-06    7    2    7    1
 3.46304929342368e-06    7    2    7    2
 0.01202103947980877    7    3    1    1
 0.0001446599003809885    7    3    2    1
 0.005181125931710892    7    3    2    2
 -0.001948963985583679    7    3    3    1
 -7.479385242301583e-05    7    3    3    2
 0.01501028954902224    7    3    3    3
 -7.013437183665605e-05    7    3    4    1
 1.374890141837707e-05    7    3    4    2
 -0.0001102009328593611    7    3    4    3
 0.003354013995656368    7    3    4    4
 -7.01343718366524e-05    7    3    5    1
 -0.000415962393404561    7    3    5    2
 4.518108929497749e-05    7    3    5    3
 -2.240951514256682e-05    7    3    5    4
 0.003354013995656319    7    3    5    5
 0.001404573884900063    7    3    6    1
 4.663509707458535e-05    7    3    6    2
 -0.01386323432280894    7    3    6    3
 -9.532407830704337e-06    7    3    6    4
 -9.532407830702399e-06    7    3    6    5
 -0.02744276784346854    7    3    6    6
 -0.001948963985583611    7    3    7    1
 7.447824316136678e-05    7    3    7    2
 0.029371697899087    7    3    7    3
 0.0004186701008510615    7    4    1    1
 -1.091930505793129e-06    7    4    2    1
 0.0001533095031398909    7    4    2    2
 -2.838228473151441e-06    7    4    3    1
 -7.660614832699141e-07    7    4    3    2
 -0.0001683319709451151    7    4    3    3
 2.230020618259091e-07    7    4    4    1
 -9.093609209522241e-07    7    4    4    2
 1.189649722091093e-06    7    4    4    3
 -0.0002286240654948328    7    4    4    4
 1.850055929836282e-06    7    4    5    1
 -1.565315902574332e-05    7    4    5    2
 3.863358336466691e-07    7    4    5    3
 3.168431503789209e-07    7    4    5    4
 9.386046736444943e-05    7    4    5    5
 -1.217977903095791e-06    7    4    6    1
 3.159485336955792e-07    7    4    6    2
 -1.720276590525866e-05    7    4    6    3
 -1.695279246627607e-06    7    4    6    4
 3.230665487922305e-09    7    4    6    5
 -0.0002446157234624193    7    4    6    6
 -3.247494490765216e-06    7    4    7    1
 1.304988096558498e-07    7    4    7    2
 4.518108929497376e-05    7    4    7    3
 2.644291002838867e-06    7    4    7    4
 0.0001274766974381732    7    5    1    1
 -1.63929811911642e-05    7    5    2    1
 6.317887856002293e-07    7    5    2    2
 1.020540619896339e-05    7    5    3    1
 -1.016708966293739e-06    7    5    3    2
 -9.59830870242158e-05    7    5    3    3
 1.27283917567701e-06    7    5    4    1
 -3.869767562243693e-07    7    5    4    2
 -1.566317735927985e-07    7    5    4    3
 1.997811185601698e-05    7    5    4    4
 1.620291965423792e-05    7    5    5    1
 9.621754260698848e-05    7    5    5    2
 1.189649722091042e-06    7    5    5    3
 8.249887719452034e-07    7    5    5    4
 7.318144054768675e-05    7    5    5    5
 -9.394489254429552e-06    7    5    6    1
 9.005621006685223e-07    7    5    6    2
 3.317961185745031e-05    7    5    6    3
 3.740910385501683e-07    7    5    6    4
 -1.241485800037936e-06    7    5    6    5
 6.86757902435313e-05    7    5    6    6
 4.383158743816239e-06    7    5    7    1
 -2.212778980522461e-06    7    5    7    2
 -0.0001102009328593587    7    5    7    3
 -6.375129984772071e-07    7    5    7    4
 2.361811208117347e-06    7    5    7    5
 -0.006137720267212318    7    6    1    1
 -8.477751068772821e-05    7    6    2    1
 -0.004462350388556763    7    6    2    2
 0.0001442093169908958    7    6    3    1
 1.383562061281436e-05    7    6    3    2
 -0.02537153288044737    7    6    3    3
 -5.946458885572639e-06    7    6    4    1
 -6.1526557418044e-06    7    6    4    2
 3.31796118574537e-05    7    6    4    3
 -0.0003751978485515111    7    6    4    4
 7.232568944823987e-05    7    6    5    1
 6.120712809440981e-05    7    6    5    2
 -1.720276590526222e-05    7    6    5    3
 1.129465436904663e-05    7    6    5    4
 -0.002962549166486151    7    6    5    5
 -0.0006438786192629441    7    6    6    1
 -0.000104229993290781    7    6    6    2
 -0.01498191570948842    7    6    6    3
 -8.218457369926901e-05    7    6    6    4
 9.414388365616062e-05    7    6    6    5
 0.01510442305954259    7    6    6    6
 0.001946333607545477    7    6    7    1
 -1.73196012392364e-05    7    6    7    2
 -0.01386323432280889    7    6    7    3
 -4.024019662349618e-05    7    6    7    4
 6.67441374212431e-05    7    6    7    5
 0.02899771513156144    7    6    7    6
 0.1103882306912363    7    7    1    1
 0.000454517583400741    7    7    2    1
 0.07780412214360195    7    7    2    2
 -0.002976902718057697    7    7    3    1
 0.0001347799042586223    7    7    3    2
 0.2546379792456708    7    7    3    3
 -0.0006604702023254807    7    7    4    1
 4.642570578391931e-05    7    7    4    2
 -9.598308702424529e-05    7    7    4    3
 0.07039924605020369    7    7    4    4
 -0.0002984547685975048    7    7    5    1
 -0.001350212651188026    7    7    5    2
 -0.0001683319709450853    7    7    5    3
 -9.874639389915198e-05    7    7    5    4
 0.06290026180849692    7    7    5    5
 0.002953819326466768    7    7    6    1
 -9.776752760012333e-05    7    7    6    2
 -0.02537153288044728    7    7    6    3
 -3.2803051691082e-05    7    7    6    4
 0.0001514811856473624    7    7    6    5
 0.2535350202843333    7    7    6    6
 0.002526495024108307    7    7    7    1
 0.000414421957219793    7    7    7    2
 0.01501028954902228    7    7    7    3
 -0.0001561815010749947    7    7    7    4
 -0.000230493453008304    7    7    7    5
 0.01764382345975613    7    7    7    6
 0.3833072300171012    7    7    7    7
 -0.002039036343607582    8    1    1    1
 4.880505302195808e-05    8    1    2    1
 -0.0008056961413377912    8    1    2    2
 -0.000149885356358237    8    1    3    1
 1.575320860566299e-06    8    1    3    2
 0.0004545175834007393    8    1    3    3
 -0.0006475530845576775    8    1    4    1
 1.218770768654155e-05    8    1    4    2
 -1.639298119116403e-05    8    1    4    3
 -4.72592741516478e-05    8    1    4    4
 -2.174590412893866e-05    8    1    5    1
 0.000149480113513638    8    1    5    2
 -1.091930505793005e-06    8    1    5    3
 -1.442446680659862e-05    8    1    5    4
 -0.0005017739411894569    8    1    5    5
 0.0001679929451490926    8    1    6    1
 -1.26461081068587e-06    8    1    6    2
 -8.477751068772634e-05    8    1    6    3
 1.123868907414085e-05    8    1    6    4
 1.006668390376993e-06    8    1    6    5
 0.0003194583564783682    8    1    6    6
 -0.0002191044908413139    8    1    7    1
 1.610362926633826e-06    8    1    7    2
 0.0001446599003809879    8    1    7    3
 -5.524959729537655e-06    8    1    7    4
 -1.419223988288164e-06    8    1    7    5
 -5.674236461824234e-05    8    1    7    6
 0.0006787794307185568    8    1    7    7
 0.001173368765141923    8    1    8    1
 0.0004754111677955324    8    2    1    1
 5.767715161466722e-07    8    2    2    1
 4.213761297403525e-05    8    2    2    2
 1.078284935683428e-05    8    2    3    1
 -1.452333411451692e-06    8    2    3    2
 -5.211550088342288e-06    8    2    3    3
 3.292516384455657e-06    8    2    4    1
 -1.832723609179022e-06    8    2    4    2
 4.260956890609181e-07    8    2    4    3
 -0.0001352453118451178    8    2    4    4
 3.292516384455243e-06    8    2    5    1
 -0.0001123220876492117    8    2    5    2
 7.794725561048025e-07    8    2    5    3
 5.795300425734457e-07    8    2    5    4
 -0.0001352453118451253    8    2    5    5
 -1.039840082498519e-05    8    2    6    1
 1.205199667460331e-06    8    2    6    2
 2.121138741181441e-06    8    2    6    3
 -5.596091412160148e-07    8    2    6    4
 -5.596091412159976e-07    8    2    6    5
 1.607085468521576e-06    8    2    6    6
 1.078284935683411e-05    8    2    7    1
 -1.075781947629805e-06    8    2    7    2
 -4.431465663134473e-06    8    2    7    3
 7.794725561047849e-07    8    2    7    4
 4.260956890608922e-07    8    2    7    5
 2.121138741181462e-06    8    2    7    6
 -5.211550088342189e-06    8    2    7    7
 5.767715161459827e-07    8    2    8    1
 3.171527258285716e-06    8    2    8    2
 -0.0003008002876755797    8    3    1    1
 1.610362926633866e-06    8    3    2    1
 -8.588128730290411e-05    8    3    2    2
 8.266529616940551e-06    8    3    3    1
 4.79934833880929e-07    8    3    3    2
 0.0004144219572197766    8    3    3    3
 -8.871235919619693e-06    8    3    4    1
 7.065950851579449e-07    8    3    4    2
 -2.212778980522503e-06    8    3    4    3
 0.0001383939812507229    8    3    4    4
 -2.22275237689908e-06    8    3    5    1
 1.409822897793157e-05    8    3    5    2
 1.304988096558943e-07    8    3    5    3
 -4.034542088995551e-07    8    3    5    4
 -5.169919006686298e-05    8    3    5    5
 6.90421156322644e-06    8    3    6    1
 1.231745579457826e-07    8    3    6    2
 -1.73196012392288e-05    8    3    6    3
 1.459795867359235e-06    8    3    6    4
 -2.449065297634088e-07    8    3    6    5
 1.324633680480538e-05    8    3    6    6
 -6.09170360292448e-06    8    3    7    1
 7.26722355996532e-08    8    3    7    2
 7.447824316135626e-05    8    3    7    3
 -1.801366753332829e-06    8    3    7    4
 1.438729303681709e-07    8    3    7    5
 -3.884450757678238e-05    8    3    7    6
 8.314882711263732e-05    8    3    7    7
 1.729424862809641e-05    8    3    8    1
 -1.075781947629825e-06    8    3    8    2
 3.463049293423573e-06    8    3    8    3
 -0.01193908603427156    8    4    1    1
 0.0001494801135136441    8    4    2    1
 -0.003446247736934954    8    4    2    2
 -9.119746598543927e-05    8    4    3    1
 2.032887778223429e-05    8    4    3    2
 -0.001350212651188135    8    4    3    3
 0.001093222209273199    8    4    4    1
 -7.050569870879276e-05    8    4    4    2
 9.62175426069921e-05    8    4    4    3
 0.01510091722035095    8    4    4    4
 -0.0001637323985630562    8    4    5    1
 0.0003574795172798384    8    4    5    2
 -1.56531590257439e-05    8    4    5    3
 9.436008509037734e-05    8    4    5    4
 -0.002951398540000517    8    4    5    5
 7.370842612357033e-05    8    4    6    1
 -1.596323393230569e-05    8    4    6    2
 6.120712809442043e-05    8    4    6    3
 -8.267065470295913e-05    8    4    6    4
 1.12427017611778e-05    8    4    6    5
 -0.0003573947881273104    8    4    6    6
 1.161120218433684e-06    8    4    7    1
 1.409822897793136e-05    8    4    7    2
 -0.0004159623934045648    8    4    7    3
 5.771680573683655e-05    8    4    7    4
 -7.545463620404179e-06    8    4    7    5
 0.0003680267453397411    8    4    7    6
 -0.0006876647321826236    8    4    7    7
 -0.002253046743832422    8    4    8    1
 -0.0001123220876492108    8    4    8    2
 -5.515214670835623e-06    8    4    8    3
 0.02899963658897437    8    4    8    4
 -0.0002434194465824334    8    5    1    1
 1.218770768654154e-05    8    5    2    1
 -0.0001721529795271258    8    5    2    2
 -1.00662325809349e-05    8    5    3    1
 3.618140895794574e-07    8    5    3    2
 4.642570578390939e-05    8    5    3    3
 -3.141373987531331e-06    8    5    4    1
 1.260907484852117e-06    8    5    4    2
 -3.869767562243666e-07    8    5    4    3
 6.784545576281757e-05    8    5    4    4
 -4.132426220158274e-06    8    5    5    1
 -7.05056987087978e-05    8    5    5    2
 -9.09360920952285e-07    8    5    5    3
 -1.247458298904349e-06    8    5    5    4
 7.03424532267594e-05    8    5    5    5
 9.165978292211374e-06    8    5    6    1
 -4.65563511370121e-07    8    5    6    2
 -6.152655741803616e-06    8    5    6    3
 3.733045591347407e-07    8    5    6    4
 8.295667945252265e-07    8    5    6    5
 2.031835123523419e-05    8    5    6    6
 -1.017767387625415e-05    8    5    7    1
 7.065950851579663e-07    8    5    7    2
 1.374890141837585e-05    8    5    7    3
 -4.335552117650626e-07    8    5    7    4
 -7.412676010494177e-07    8    5    7    5
 -7.617501947454414e-06    8    5    7    6
 4.017900579366547e-05    8    5    7    7
 1.130355860642112e-05    8    5    8    1
 -1.832723609179041e-06    8    5    8    2
 9.845525110933346e-07    8    5    8    3
 6.595551032857345e-05    8    5    8    4
 2.379129640356618e-06    8    5    8    5
 0.000425344914690505    8    6    1    1
 -1.264610810686006e-06    8    6    2    1
 0.0001534635149617832    8    6    2    2
 -5.502768499075908e-06    8    6    3    1
 -7.356019728104537e-07    8    6    3    2
 -9.776752760009708e-05    8    6    3    3
 6.459327535059018e-06    8    6    4    1
 -4.655635113700879e-07    8    6    4    2
 9.005621006685249e-07    8    6    4    3
 -0.0002456933013976082    8    6    4    4
 1.960588560670449e-06    8    6    5    1
 -1.596323393230545e-05    8    6    5    2
 3.159485336955749e-07    8    6    5    3
 -6.272853566155064e-10    8    6    5    4
 9.443379373788738e-05    8    6    5    5
 4.045120504386811e-06    8    6    6    1
 1.710700171350198e-07    8    6    6    2
 -0.0001042299932907767    8    6    6    3
 -1.701617038247713e-06    8    6    6    4
 3.201968274024765e-07    8    6    6    5
 -0.0002311335935662082    8    6    6    6
 1.806197955672369e-06    8    6    7    1
 1.231745579457928e-07    8    6    7    2
 4.663509707458669e-05    8    6    7    3
 1.847969989359812e-06    8    6    7    4
 -4.379291282969817e-07    8    6    7    5
 5.708310396361854e-05    8    6    7    6
 7.431406772872009e-05    8    6    7    7
 -2.70762100065082e-06    8    6    8    1
 1.205199667460326e-06    8    6    8    2
 -1.848281233418759e-06    8    6    8    3
 -4.014170001180616e-05    8    6    8    4
 -6.367769136649386e-07    8    6    8    5
 2.669832197992064e-06    8    6    8    6
 -0.0005835276639738502    8    7    1    1
 1.57532086056624e-06    8    7    2    1
 -0.0002073742105319388    8    7    2    2
 6.770654070882272e-06    8    7    3    1
 1.325664260171491e-06    8    7    3    2
 0.0001347799042586048    8    7    3    3
 -2.56458568646133e-06    8    7    4    1
 3.618140895793802e-07    8    7    4    2
 -1.016708966293743e-06    8    7    4    3
 0.0002809606841348486    8    7    4    4
 -2.769596520820942e-06    8    7    5    1
 2.032887778223308e-05    8    7    5    2
 -7.660614832698656e-07    8    7    5    3
 2.667548653724004e-07    8    7    5    4
 -0.0001302700291371488    8    7    5    5
 -1.313029012558711e-06    8    7    6    1
 -7.356019728104328e-07    8    7    6    2
 1.383562061281341e-05    8    7    6    3
 1.47318570430407e-06    8    7    6    4
 2.62703962778974e-07    8    7    6    5
 0.0002805662621217014    8    7    6    6
 1.471544649574375e-05    8    7    7    1
 4.79934833880869e-07    8    7    7    2
 -7.479385242301621e-05    8    7    7    3
 -2.70254620715326e-06    8    7    7    4
 4.635220124127723e-07    8    7    7    5
 7.970964963147754e-05    8    7    7    6
 0.0002757209637418392    8    7    7    7
 -1.160057174334409e-05    8    7    8    1
 -1.452333411451609e-06    8    7    8    2
 2.104116431767889e-06    8    7    8    3
 7.95148591419989e-05    8    7    8    4
 4.580066872693975e-07    8    7    8    5
 -2.717479500089283e-06    8    7    8    6
 4.504613691865413e-06    8    7    8    7
 0.1444508618880634    8    8    1    1
 -0.0008056961413378294    8    8    2    1
 0.07122255439900438    8    8    2    2
 -0.0001827938385051569    8    8    3    1
 -0.0002073742105319456    8    8    3    2
 0.07780412214360186    8    8    3    3
 -0.003832039226771485    8    8    4    1
 -0.0001721529795271146    8    8    4    2
 6.317887855942833e-07    8    8    4    3
 0.2535375813659657    8    8    4    4
 0.00101695440051409    8    8    5    1
 -0.003446247736934902    8    8    5    2
 0.0001533095031399017    8    8    5    3
 0.0001506985823548012    8    8    5    4
 0.06289558824752708    8    8    5    5
 0.0001668802451458913    8    8    6    1
 0.0001534635149617764    8    8    6    2
 -0.004462350388556733    8    8    6    3
 -3.29549792503689e-05    8    8    6    4
 -9.864450523348455e-05    8    8    6    5
 0.0704000722561112    8    8    6    6
 -0.0003227462392249229    8    8    7    1
 -8.588128730289729e-05    8    8    7    2
 0.005181125931710936    8    8    7    3
 7.476149066999754e-05    8    8    7    4
 3.975619888282426e-05    8    8    7    5
 -0.0007232222375691247    8    8    7    6
 0.08975321911036307    8    8    7    7
 -0.001914121652230628    8    8    8    1
 4.213761297402314e-05    8    8    8    2
 -7.164312780360372e-05    8    8    8    3
 0.01764647010772599    8    8    8    4
 -0.0002328570160907996    8    8    8    5
 -0.0001566694377805963    8    8    8    6
 0.0002742397976867509    8    8    8    7
 0.3832893139256584    8    8    8    8
 -0.001317736441280053    9    1    1    1
 0.0008796516132624767    9    1    2    1
 0.004679077725323958    9    1    2    2
 -0.0001784497563596572    9    1    3    1
 -4.277924195039702e-06    9    1    3    2
 0.0008955570816860663    9    1    3    3
 6.243288639673807e-05    9    1    4    1
 2.261810351777966e-06    9    1    4    2
 7.4652757072627e-07    9    1    4    3
 -0.0008412230100638613    9    1    4    4
 -0.0006739063541165198    9    1    5    1
 -0.0005032154993549155    9    1    5    2
 3.15042967019467e-06    9    1    5    3
 -5.656463312873057e-06    9    1    5    4
 -0.0009431317072154176    9    1    5    5
 0.000131181838411548    9    1    6    1
 -2.352744487390423e-06    9    1    6    2
 1.901380023866372e-05    9    1    6    3
 -9.041410928040851e-07    9    1    6    4
 2.825135799925535e-06    9    1    6    5
 0.0004505383846604574    9    1    6    6
 -0.0001008285057121947    9    1    7    1
 6.937739450844446e-06    9    1    7    2
 7.803212606624346e-05    9    1    7    3
 5.718299246840582e-07    9    1    7    4
 -9.433112778305643e-06    9    1    7    5
 -9.534322495001751e-05    9    1    7    6
 0.0003866962275576646    9    1    7    7