 &FCI NORB=  30,NELEC=12,MS2=0,
  ORBSYM=1,1,1,1,1,1,1,1,1,1,1,1,1,1,1,1,1,1,1,1,1,1,1,1,1,1,1,1,1,1,
  ISYM=1,
 &END
 1.686794332126215    1    1    1    1
 0.06195244187238907    1    1    2    1
 0.6461869220171932    1    1    2    2
 1.104396432285514    1    1    3    3
 1.104396432285514    1    1    4    4
 1.104396432285514    1    1    5    5
 0.04157609498802629    1    1    6    6
 0.04157609498802629    1    1    7    7
 -0.0004346944238798382    1    1    8    6
 -0.0007585135382735106    1    1    8    7
 0.04160427822729324    1    1    8    8
 0.04156200336839284    1    1    9    9
 0.04156200336839284    1    1   10   10
 0.04157609498802629    1    1   11   11
 0.04157609498802629    1    1   12   12
 0.04156200336839284    1    1   13   13
 -0.0004346944238798382    1    1   14   11
 -0.0007585135382735106    1    1   14   12
 0.04160427822729324    1    1   14   14
 0.04156200336839284    1    1   15   15
 0.02939873870128944    1    1   16   16
 0.02939873870128946    1    1   17   17
 -0.0001536876874347064    1    1   18   16
 -0.0002681750332675005    1    1   18   17
 0.02940122977123959    1    1   18   18
 -0.0001536876874347065    1    1   19   16
 -0.0002681750332675006    1    1   19   17
 7.473209850541649e-06    1    1   19   18
 0.0294012297712396    1    1   19   19
 0.02939375656138906    1    1   20   20
 0.04157609162128585    1    1   21   21
 0.04157609162128586    1    1   22   22
 -0.00021734715913903    1    1   23   21
 -0.0003792566770026335    1    1   23   22
 0.04157256871552167    1    1   23   23
 -0.0002173471591390299    1    1   24   21
 -0.0003792566770026334    1    1   24   22
 1.05687104459438e-05    1    1   24   23
 0.04157256871552165    1    1   24   24
 -0.0003073753499788292    1    1   25   21
 -0.0005363500231025493    1    1   25   22
 1.494641607010568e-05    1    1   25   23
 1.494641607010144e-05    1    1   25   24
 0.04158313743281424    1    1   25   25
 0.04157609162128585    1    1   26   26
 0.04157609162128586    1    1   27   27
 -0.00021734715913903    1    1   28   26
 -0.0003792566770026335    1    1   28   27
 0.04157256871552167    1    1   28   28
 -0.0002173471591390299    1    1   29   26
 -0.0003792566770026334    1    1   29   27
 1.05687104459438e-05    1    1   29   28
 0.04157256871552165    1    1   29   29
 0.0003073753499788292    1    1   30   26
 0.0005363500231025493    1    1   30   27
 -1.494641607010568e-05    1    1   30   28
 -1.494641607010144e-05    1    1   30   29
 0.04158313743281424    1    1   30   30
 0.06195244187238903    2    1    1    1
 0.01609965082267764    2    1    2    1
 0.02953550710994271    2    1    2    2
 0.07725646222379831    2    1    3    3
 0.07725646222379831    2    1    4    4
 0.07725646222379831    2    1    5    5
 0.6461869220171931    2    2    1    1
 0.02953550710994268    2    2    2    1
 0.5283760352114115    2    2    2    2
 0.6318188052700047    2    2    3    3
 0.6318188052700047    2    2    4    4
 0.6318188052700047    2    2    5    5
 0.04157609498802629    2    2    6    6
 0.04157609498802629    2    2    7    7
 -0.0004346944238798381    2    2    8    6
 -0.000758513538273511    2    2    8    7
 0.04160427822729324    2    2    8    8
 0.04156200336839284    2    2    9    9
 0.04156200336839284    2    2   10   10
 0.04157609498802629    2    2   11   11
 0.04157609498802629    2    2   12   12
 0.04156200336839284    2    2   13   13
 -0.0004346944238798381    2    2   14   11
 -0.000758513538273511    2    2   14   12
 0.04160427822729324    2    2   14   14
 0.04156200336839284    2    2   15   15
 0.02939873870128944    2    2   16   16
 0.02939873870128944    2    2   17   17
 -0.0001536876874347063    2    2   18   16
 -0.0002681750332675006    2    2   18   17
 0.02940122977123959    2    2   18   18
 -0.0001536876874347064    2    2   19   16
 -0.0002681750332675006    2    2   19   17
 7.473209850541654e-06    2    2   19   18
 0.0294012297712396    2    2   19   19
 0.02939375656138906    2    2   20   20
 0.04157609162128583    2    2   21   21
 0.04157609162128583    2    2   22   22
 -0.0002173471591390301    2    2   23   21
 -0.0003792566770026333    2    2   23   22
 0.04157256871552166    2    2   23   23
 -0.0002173471591390301    2    2   24   21
 -0.0003792566770026332    2    2   24   22
 1.056871044594379e-05    2    2   24   23
 0.04157256871552165    2    2   24   24
 -0.0003073753499788292    2    2   25   21
 -0.0005363500231025494    2    2   25   22
 1.494641607010568e-05    2    2   25   23
 1.494641607010143e-05    2    2   25   24
 0.04158313743281422    2    2   25   25
 0.04157609162128583    2    2   26   26
 0.04157609162128583    2    2   27   27
 -0.0002173471591390301    2    2   28   26
 -0.0003792566770026333    2    2   28   27
 0.04157256871552166    2    2   28   28
 -0.0002173471591390301    2    2   29   26
 -0.0003792566770026332    2    2   29   27
 1.056871044594379e-05    2    2   29   28
 0.04157256871552165    2    2   29   29
 0.0003073753499788292    2    2   30   26
 0.0005363500231025494    2    2   30   27
 -1.494641607010568e-05    2    2   30   28
 -1.494641607010143e-05    2    2   30   29
 0.04158313743281422    2    2   30   30
 0.1364260178333792    3    1    3    1
 0.07540390134933626    3    1    3    2
 0.0004346944238798382    3    1    6    6
 0.0004346944238798382    3    1    7    7
 -9.089802310998277e-06    3    1    8    6
 -1.586111469197942e-05    3    1    8    7
 0.0004355784244306153    3    1    8    8
 0.0004342524236044478    3    1    9    9
 0.0004342524236044478    3    1   10   10
 4.544901155499164e-06    3    1   13   11
 7.930557345989773e-06    3    1   13   12
 -4.420002753891276e-07    3    1   14   13
 0.0001536876874347066    3    1   16   16
 0.0001536876874347064    3    1   17   17
 -8.034326067189991e-07    3    1   18   16
 -1.401937719484516e-06    3    1   18   17
 0.0001536486197607041    3    1   18   18
 -2.410297820157019e-06    3    1   19   16
 -4.205813158453593e-06    3    1   19   17
 1.172030220052224e-07    3    1   19   18
 0.0001538048904567112    3    1   19   19
 0.0001536095520867026    3    1   20   20
 0.0002173471591390299    3    1   21   21
 0.0002173471591390299    3    1   22   22
 1.13622556490173e-06    3    1   23   21
 1.982639818146515e-06    3    1   23   22
 0.0002169604090099147    3    1   23   23
 -3.408674486489314e-06    3    1   24   21
 -5.947915601246296e-06    3    1   24   22
 5.524996731326608e-08    3    1   24   23
 0.0002174024091063427    3    1   24   24
 -4.820594469230453e-06    3    1   25   21
 -8.411624273442425e-06    3    1   25   22
 7.813526574955585e-08    3    1   25   23
 3.90676581836751e-07    3    1   25   24
 0.0002176786593008309    3    1   25   25
 0.0002173471591390299    3    1   26   26
 0.0002173471591390299    3    1   27   27
 1.13622556490173e-06    3    1   28   26
 1.982639818146515e-06    3    1   28   27
 0.0002169604090099147    3    1   28   28
 -3.408674486489314e-06    3    1   29   26
 -5.947915601246296e-06    3    1   29   27
 5.524996731326608e-08    3    1   29   28
 0.0002174024091063427    3    1   29   29
 4.820594469230453e-06    3    1   30   26
 8.411624273442425e-06    3    1   30   27
 -7.813526574955585e-08    3    1   30   28
 -3.90676581836751e-07    3    1   30   29
 0.0002176786593008309    3    1   30   30
 0.07540390134933619    3    2    3    1
 0.07525188015951501    3    2    3    2
 0.0007585135382735109    3    2    6    6
 0.0007585135382735112    3    2    7    7
 -1.586111469197941e-05    3    2    8    6
 -2.767661503130064e-05    3    2    8    7
 0.0007600560618228613    3    2    8    8
 0.0007577422764988341    3    2    9    9
 0.0007577422764988341    3    2   10   10
 7.930557345989768e-06    3    2   13   11
 1.383830751565041e-05    3    2   13   12
 -7.71261774675882e-07    3    2   14   13
 0.0002681750332675007    3    2   16   16
 0.0002681750332675009    3    2   17   17
 -1.401937719484515e-06    3    2   18   16
 -2.446290271115255e-06    3    2   18   17
 0.0002681068627136324    3    2   18   18
 -4.205813158453589e-06    3    2   19   16
 -7.338870813345844e-06    3    2   19   17
 2.045116616037018e-07    3    2   19   18
 0.0002683795449291041    3    2   19   19
 0.0002680386921597646    3    2   20   20
 0.0003792566770026333    3    2   21   21
 0.0003792566770026331    3    2   22   22
 1.982639818146511e-06    3    2   23   21
 3.459577719358966e-06    3    2   23   22
 0.0003785818231449636    3    2   23   23
 -5.947915601246295e-06    3    2   24   21
 -1.037872643450487e-05    3    2   24   22
 9.640760473123983e-08    3    2   24   23
 0.0003793530846073639    3    2   24   24
 -8.411624273442423e-06    3    2   25   21
 -1.467773806097835e-05    3    2   25   22
 1.36340964208043e-07    3    2   25   23
 6.817052626640324e-07    3    2   25   24
 0.0003798351232555706    3    2   25   25
 0.0003792566770026333    3    2   26   26
 0.0003792566770026331    3    2   27   27
 1.982639818146511e-06    3    2   28   26
 3.459577719358966e-06    3    2   28   27
 0.0003785818231449636    3    2   28   28
 -5.947915601246295e-06    3    2   29   26
 -1.037872643450487e-05    3    2   29   27
 9.640760473123983e-08    3    2   29   28
 0.0003793530846073639    3    2   29   29
 8.411624273442423e-06    3    2   30   26
 1.467773806097835e-05    3    2   30   27
 -1.36340964208043e-07    3    2   30   28
 -6.817052626640324e-07    3    2   30   29
 0.0003798351232555706    3    2   30   30
 1.104396432285514    3    3    1    1
 0.07725646222379839    3    3    2    1
 0.6318188052700048    3    3    2    2
 1.040530899123286    3    3    3    3
 0.9131189522918632    3    3    4    4
 0.9131189522918632    3    3    5    5
 0.04160427822729326    3    3    6    6
 0.04160427822729326    3    3    7    7
 -0.0004355784244306155    3    3    8    6
 -0.0007600560618228614    3    3    8    7
 0.0416325760942051    3    3    8    8
 0.04159012929383733    3    3    9    9
 0.04159012929383732    3    3   10   10
 0.04156200336839286    3    3   11   11
 0.04156200336839286    3    3   12   12
 0.04154795473412622    3    3   13   13
 -0.0004342524236044479    3    3   14   11
 -0.000757742276498834    3    3   14   12
 0.04159012929383733    3    3   14   14
 0.04154792607721499    3    3   15   15
 0.02940122977123961    3    3   16   16
 0.02940122977123962    3    3   17   17
 -0.0001536486197607041    3    3   18   16
 -0.0002681068627136325    3    3   18   17
 0.02940371260914442    3    3   18   18
 -0.0001538048904567112    3    3   19   16
 -0.0002683795449291041    3    3   19   17
 7.476376021832096e-06    3    3   19   18
 0.02940373287264069    3    3   19   19
 0.02939624383193369    3    3   20   20
 0.04157256871552167    3    3   21   21
 0.04157256871552167    3    3   22   22
 -0.0002169604090099147    3    3   23   21
 -0.0003785818231449636    3    3   23   22
 0.04156901267522452    3    3   23   23
 -0.0002174024091063428    3    3   24   21
 -0.0003793530846073639    3    3   24   22
 1.054632224165971e-05    3    3   24   23
 0.04156905566056235    3    3   24   24
 -0.0003074534852445779    3    3   25   21
 -0.0005364863640667565    3    3   25   22
 1.491475436284215e-05    3    3   25   23
 1.49654130829734e-05    3    3   25   24
 0.04157963781077808    3    3   25   25
 0.04157256871552167    3    3   26   26
 0.04157256871552167    3    3   27   27
 -0.0002169604090099147    3    3   28   26
 -0.0003785818231449636    3    3   28   27
 0.04156901267522452    3    3   28   28
 -0.0002174024091063428    3    3   29   26
 -0.0003793530846073639    3    3   29   27
 1.054632224165971e-05    3    3   29   28
 0.04156905566056235    3    3   29   29
 0.0003074534852445779    3    3   30   26
 0.0005364863640667565    3    3   30   27
 -1.491475436284215e-05    3    3   30   28
 -1.49654130829734e-05    3    3   30   29
 0.04157963781077808    3    3   30   30
 0.1364260178333792    4    1    4    1
 0.07540390134933626    4    1    4    2
 4.544901155499164e-06    4    1    9    6
 7.930557345989773e-06    4    1    9    7
 -4.420002753891276e-07    4    1    9    8
 0.0004346944238798382    4    1   11   11
 0.0004346944238798382    4    1   12   12
 0.0004342524236044478    4    1   13   13
 -9.089802310998277e-06    4    1   14   11
 -1.586111469197942e-05    4    1   14   12
 0.0004355784244306153    4    1   14   14
 0.0004342524236044478    4    1   15   15
 0.0001536876874347066    4    1   16   16
 0.0001536876874347064    4    1   17   17
 -2.410297820157019e-06    4    1   18   16
 -4.205813158453591e-06    4    1   18   17
 0.0001538048904567111    4    1   18   18
 -8.034326067189993e-07    4    1   19   16
 -1.401937719484516e-06    4    1   19   17
 1.172030220052224e-07    4    1   19   18
 0.0001536486197607042    4    1   19   19
 0.0001536095520867026    4    1   20   20
 0.0002173471591390299    4    1   21   21
 0.0002173471591390299    4    1   22   22
 -3.408674486489314e-06    4    1   23   21
 -5.9479156012463e-06    4    1   23   22
 0.0002174024091063428    4    1   23   23
 1.136225564901729e-06    4    1   24   21
 1.982639818146516e-06    4    1   24   22
 5.524996731326606e-08    4    1   24   23
 0.0002169604090099145    4    1   24   24
 -4.820594469230453e-06    4    1   25   21
 -8.411624273442425e-06    4    1   25   22
 3.906765818367732e-07    4    1   25   23
 7.813526574953367e-08    4    1   25   24
 0.0002176786593008309    4    1   25   25
 0.0002173471591390299    4    1   26   26
 0.0002173471591390299    4    1   27   27
 -3.408674486489314e-06    4    1   28   26
 -5.9479156012463e-06    4    1   28   27
 0.0002174024091063428    4    1   28   28
 1.136225564901729e-06    4    1   29   26
 1.982639818146516e-06    4    1   29   27
 5.524996731326606e-08    4    1   29   28
 0.0002169604090099145    4    1   29   29
 4.820594469230453e-06    4    1   30   26
 8.411624273442425e-06    4    1   30   27
 -3.906765818367732e-07    4    1   30   28
 -7.813526574953367e-08    4    1   30   29
 0.0002176786593008309    4    1   30   30
 0.07540390134933619    4    2    4    1
 0.07525188015951501    4    2    4    2
 7.930557345989768e-06    4    2    9    6
 1.383830751565041e-05    4    2    9    7
 -7.71261774675882e-07    4    2    9    8
 0.0007585135382735109    4    2   11   11
 0.0007585135382735112    4    2   12   12
 0.0007577422764988341    4    2   13   13
 -1.586111469197941e-05    4    2   14   11
 -2.767661503130064e-05    4    2   14   12
 0.0007600560618228613    4    2   14   14
 0.0007577422764988341    4    2   15   15
 0.0002681750332675007    4    2   16   16
 0.0002681750332675009    4    2   17   17
 -4.20581315845359e-06    4    2   18   16
 -7.338870813345844e-06    4    2   18   17
 0.000268379544929104    4    2   18   18
 -1.401937719484515e-06    4    2   19   16
 -2.446290271115256e-06    4    2   19   17
 2.045116616037018e-07    4    2   19   18
 0.0002681068627136325    4    2   19   19
 0.0002680386921597646    4    2   20   20
 0.0003792566770026333    4    2   21   21
 0.0003792566770026331    4    2   22   22
 -5.947915601246295e-06    4    2   23   21
 -1.037872643450487e-05    4    2   23   22
 0.0003793530846073641    4    2   23   23
 1.982639818146511e-06    4    2   24   21
 3.459577719358966e-06    4    2   24   22
 9.640760473123979e-08    4    2   24   23
 0.0003785818231449634    4    2   24   24
 -8.411624273442423e-06    4    2   25   21
 -1.467773806097835e-05    4    2   25   22
 6.817052626640712e-07    4    2   25   23
 1.363409642080043e-07    4    2   25   24
 0.0003798351232555706    4    2   25   25
 0.0003792566770026333    4    2   26   26
 0.0003792566770026331    4    2   27   27
 -5.947915601246295e-06    4    2   28   26
 -1.037872643450487e-05    4    2   28   27
 0.0003793530846073641    4    2   28   28
 1.982639818146511e-06    4    2   29   26
 3.459577719358966e-06    4    2   29   27
 9.640760473123979e-08    4    2   29   28
 0.0003785818231449634    4    2   29   29
 8.411624273442423e-06    4    2   30   26
 1.467773806097835e-05    4    2   30   27
 -6.817052626640712e-07    4    2   30   28
 -1.363409642080043e-07    4    2   30   29
 0.0003798351232555706    4    2   30   30
 0.06370597341571139    4    3    4    3
 4.420002753891276e-07    4    3    9    6
 7.712617746758819e-07    4    3    9    7
 -5.731382246019666e-08    4    3    9    8
 4.420002753891276e-07    4    3   13   11
 7.712617746758819e-07    4    3   13   12
 -5.731382246019666e-08    4    3   14   13
 7.473209850544872e-06    4    3   16   16
 7.473209850544879e-06    4    3   17   17
 -1.172030220052392e-07    4    3   18   16
 -2.045116616037311e-07    4    3   18   17
 7.476376021835314e-06    4    3   18   18
 -1.172030220052393e-07    4    3   19   16
 -2.045116616037311e-07    4    3   19   17
 1.20314509035806e-08    4    3   19   18
 7.476376021835317e-06    4    3   19   19
 7.46687750796407e-06    4    3   20   20
 1.056871044594545e-05    4    3   21   21
 1.056871044594543e-05    4    3   22   22
 -5.524996731327473e-08    4    3   23   21
 -9.64076047312548e-08    4    3   23   22
 1.054632224166135e-05    4    3   23   23
 -5.524996731327469e-08    4    3   24   21
 -9.640760473125474e-08    4    3   24   22
 9.850804895788437e-09    4    3   24   23
 1.054632224166135e-05    4    3   24   24
 -3.906765818367827e-07    4    3   25   21
 -6.817052626640883e-07    4    3   25   22
 1.899701287190635e-08    4    3   25   23
 1.899701287190527e-08    4    3   25   24
 1.061348685451374e-05    4    3   25   25
 1.056871044594545e-05    4    3   26   26
 1.056871044594543e-05    4    3   27   27
 -5.524996731327473e-08    4    3   28   26
 -9.64076047312548e-08    4    3   28   27
 1.054632224166135e-05    4    3   28   28
 -5.524996731327469e-08    4    3   29   26
 -9.640760473125474e-08    4    3   29   27
 9.850804895788437e-09    4    3   29   28
 1.054632224166135e-05    4    3   29   29
 3.906765818367827e-07    4    3   30   26
 6.817052626640883e-07    4    3   30   27
 -1.899701287190635e-08    4    3   30   28
 -1.899701287190527e-08    4    3   30   29
 1.061348685451374e-05    4    3   30   30
 1.104396432285514    4    4    1    1
 0.07725646222379839    4    4    2    1
 0.6318188052700048    4    4    2    2
 0.9131189522918632    4    4    3    3
 1.040530899123286    4    4    4    4
 0.9131189522918632    4    4    5    5
 0.04156200336839286    4    4    6    6
 0.04156200336839286    4    4    7    7
 -0.0004342524236044479    4    4    8    6
 -0.000757742276498834    4    4    8    7
 0.04159012929383733    4    4    8    8
 0.04154795473412622    4    4    9    9
 0.04154792607721499    4    4   10   10
 0.04160427822729326    4    4   11   11
 0.04160427822729326    4    4   12   12
 0.04159012929383733    4    4   13   13
 -0.0004355784244306155    4    4   14   11
 -0.0007600560618228614    4    4   14   12
 0.0416325760942051    4    4   14   14
 0.04159012929383732    4    4   15   15
 0.02940122977123961    4    4   16   16
 0.02940122977123962    4    4   17   17
 -0.0001538048904567112    4    4   18   16
 -0.0002683795449291041    4    4   18   17
 0.02940373287264068    4    4   18   18
 -0.0001536486197607042    4    4   19   16
 -0.0002681068627136325    4    4   19   17
 7.476376021832096e-06    4    4   19   18
 0.02940371260914443    4    4   19   19
 0.02939624383193369    4    4   20   20
 0.04157256871552167    4    4   21   21
 0.04157256871552167    4    4   22   22
 -0.0002174024091063429    4    4   23   21
 -0.0003793530846073641    4    4   23   22
 0.04156905566056236    4    4   23   23
 -0.0002169604090099147    4    4   24   21
 -0.0003785818231449634    4    4   24   22
 1.054632224165971e-05    4    4   24   23
 0.0415690126752245    4    4   24   24
 -0.0003074534852445779    4    4   25   21
 -0.0005364863640667565    4    4   25   22
 1.496541308297765e-05    4    4   25   23
 1.491475436283791e-05    4    4   25   24
 0.04157963781077808    4    4   25   25
 0.04157256871552167    4    4   26   26
 0.04157256871552167    4    4   27   27
 -0.0002174024091063429    4    4   28   26
 -0.0003793530846073641    4    4   28   27
 0.04156905566056236    4    4   28   28
 -0.0002169604090099147    4    4   29   26
 -0.0003785818231449634    4    4   29   27
 1.054632224165971e-05    4    4   29   28
 0.0415690126752245    4    4   29   29
 0.0003074534852445779    4    4   30   26
 0.0005364863640667565    4    4   30   27
 -1.496541308297765e-05    4    4   30   28
 -1.491475436283791e-05    4    4   30   29
 0.04157963781077808    4    4   30   30
 0.1364260178333792    5    1    5    1
 0.07540390134933626    5    1    5    2
 4.544901155499164e-06    5    1   10    6
 7.930557345989773e-06    5    1   10    7
 -4.420002753891277e-07    5    1   10    8
 4.544901155499164e-06    5    1   15   11
 7.930557345989773e-06    5    1   15   12
 -4.420002753891277e-07    5    1   15   14
 1.606865213438019e-06    5    1   20   16
 2.803875438969076e-06    5    1   20   17
 -7.813534800349339e-08    5    1   20   18
 -7.81353480034934e-08    5    1   20   19
 0.0003073753499788289    5    1   21   21
 0.0003073753499788292    5    1   22   22
 -4.820594469230455e-06    5    1   23   21
 -8.411624273442429e-06    5    1   23   22
 0.000307453485244578    5    1   23   23
 -4.820594469230453e-06    5    1   24   21
 -8.411624273442425e-06    5    1   24   22
 3.906765818367709e-07    5    1   24   23
 0.0003074534852445779    5    1   24   24
 -2.272451129803381e-06    5    1   25   21
 -3.965279636292937e-06    5    1   25   22
 3.315001618015528e-07    5    1   25   23
 3.315001618015214e-07    5    1   25   24
 0.0003072190794473293    5    1   25   25
 -0.0003073753499788289    5    1   26   26
 -0.0003073753499788292    5    1   27   27
 4.820594469230455e-06    5    1   28   26
 8.411624273442429e-06    5    1   28   27
 -0.000307453485244578    5    1   28   28
 4.820594469230453e-06    5    1   29   26
 8.411624273442425e-06    5    1   29   27
 -3.906765818367709e-07    5    1   29   28
 -0.0003074534852445779    5    1   29   29
 -2.272451129803381e-06    5    1   30   26
 -3.965279636292937e-06    5    1   30   27
 3.315001618015528e-07    5    1   30   28
 3.315001618015214e-07    5    1   30   29
 -0.0003072190794473293    5    1   30   30
 0.07540390134933619    5    2    5    1
 0.07525188015951501    5    2    5    2
 7.930557345989768e-06    5    2   10    6
 1.383830751565041e-05    5    2   10    7
 -7.71261774675882e-07    5    2   10    8
 7.930557345989768e-06    5    2   15   11
 1.383830751565041e-05    5    2   15   12
 -7.71261774675882e-07    5    2   15   14
 2.803875438969076e-06    5    2   20   16
 4.892580542230588e-06    5    2   20   17
 -1.363411077358218e-07    5    2   20   18
 -1.363411077358218e-07    5    2   20   19
 0.0005363500231025494    5    2   21   21
 0.0005363500231025495    5    2   22   22
 -8.41162427344243e-06    5    2   23   21
 -1.467773806097836e-05    5    2   23   22
 0.0005364863640667569    5    2   23   23
 -8.411624273442427e-06    5    2   24   21
 -1.467773806097835e-05    5    2   24   22
 6.817052626640671e-07    5    2   24   23
 0.0005364863640667566    5    2   24   24
 -3.965279636292936e-06    5    2   25   21
 -6.91915543871769e-06    5    2   25   22
 5.784462529380051e-07    5    2   25   23
 5.784462529379505e-07    5    2   25   24
 0.0005360773411741322    5    2   25   25
 -0.0005363500231025494    5    2   26   26
 -0.0005363500231025495    5    2   27   27
 8.41162427344243e-06    5    2   28   26
 1.467773806097836e-05    5    2   28   27
 -0.0005364863640667569    5    2   28   28
 8.411624273442427e-06    5    2   29   26
 1.467773806097835e-05    5    2   29   27
 -6.817052626640671e-07    5    2   29   28
 -0.0005364863640667566    5    2   29   29
 -3.965279636292936e-06    5    2   30   26
 -6.91915543871769e-06    5    2   30   27
 5.784462529380051e-07    5    2   30   28
 5.784462529379505e-07    5    2   30   29
 -0.0005360773411741322    5    2   30   30
 0.06370597341571139    5    3    5    3
 4.420002753891276e-07    5    3   10    6
 7.712617746758816e-07    5    3   10    7
 -5.731382246019666e-08    5    3   10    8
 1.432845561504917e-08    5    3   15   13
 7.813534800349337e-08    5    3   20   16
 1.363411077358218e-07    5    3   20   17
 -3.799405548499397e-09    5    3   20   18
 -6.33234258083233e-09    5    3   20   19
 1.494641607010556e-05    5    3   21   21
 1.494641607010555e-05    5    3   22   22
 -7.813526574954463e-08    5    3   23   21
 -1.363409642080236e-07    5    3   23   22
 1.491475436284203e-05    5    3   23   23
 -3.906765818367831e-07    5    3   24   21
 -6.81705262664088e-07    5    3   24   22
 1.899701287190573e-08    5    3   24   23
 1.496541308297752e-05    5    3   24   24
 -3.315001618015666e-07    5    3   25   21
 -5.784462529380296e-07    5    3   25   22
 2.328372804640963e-08    5    3   25   23
 4.477640856826241e-08    5    3   25   24
 1.495908076449729e-05    5    3   25   25
 -1.494641607010556e-05    5    3   26   26
 -1.494641607010555e-05    5    3   27   27
 7.813526574954463e-08    5    3   28   26
 1.363409642080236e-07    5    3   28   27
 -1.491475436284203e-05    5    3   28   28
 3.906765818367831e-07    5    3   29   26
 6.81705262664088e-07    5    3   29   27
 -1.899701287190573e-08    5    3   29   28
 -1.496541308297752e-05    5    3   29   29
 -3.315001618015666e-07    5    3   30   26
 -5.784462529380296e-07    5    3   30   27
 2.328372804640963e-08    5    3   30   28
 4.477640856826241e-08    5    3   30   29
 -1.495908076449729e-05    5    3   30   30
 0.06370597341571139    5    4    5    4
 1.432845561504917e-08    5    4   10    9
 4.420002753891276e-07    5    4   15   11
 7.712617746758816e-07    5    4   15   12
 -5.731382246019666e-08    5    4   15   14
 7.813534800349337e-08    5    4   20   16
 1.363411077358218e-07    5    4   20   17
 -6.332342580832329e-09    5    4   20   18
 -3.799405548499398e-09    5    4   20   19
 1.494641607010556e-05    5    4   21   21
 1.494641607010555e-05    5    4   22   22
 -3.906765818367831e-07    5    4   23   21
 -6.817052626640882e-07    5    4   23   22
 1.496541308297752e-05    5    4   23   23
 -7.813526574954459e-08    5    4   24   21
 -1.363409642080235e-07    5    4   24   22
 1.899701287190573e-08    5    4   24   23
 1.491475436284202e-05    5    4   24   24
 -3.315001618015665e-07    5    4   25   21
 -5.784462529380297e-07    5    4   25   22
 4.477640856826395e-08    5    4   25   23
 2.32837280464081e-08    5    4   25   24
 1.495908076449729e-05    5    4   25   25
 -1.494641607010556e-05    5    4   26   26
 -1.494641607010555e-05    5    4   27   27
 3.906765818367831e-07    5    4   28   26
 6.817052626640882e-07    5    4   28   27
 -1.496541308297752e-05    5    4   28   28
 7.813526574954459e-08    5    4   29   26
 1.363409642080235e-07    5    4   29   27
 -1.899701287190573e-08    5    4   29   28
 -1.491475436284202e-05    5    4   29   29
 -3.315001618015665e-07    5    4   30   26
 -5.784462529380297e-07    5    4   30   27
 4.477640856826395e-08    5    4   30   28
 2.32837280464081e-08    5    4   30   29
 -1.495908076449729e-05    5    4   30   30
 1.104396432285514    5    5    1    1
 0.07725646222379839    5    5    2    1
 0.6318188052700048    5    5    2    2
 0.9131189522918632    5    5    3    3
 0.9131189522918632    5    5    4    4
 1.040530899123286    5    5    5    5
 0.04156200336839286    5    5    6    6
 0.04156200336839286    5    5    7    7
 -0.0004342524236044479    5    5    8    6
 -0.000757742276498834    5    5    8    7
 0.04159012929383732    5    5    8    8
 0.04154792607721499    5    5    9    9
 0.04154795473412622    5    5   10   10
 0.04156200336839286    5    5   11   11
 0.04156200336839286    5    5   12   12
 0.04154792607721499    5    5   13   13
 -0.0004342524236044479    5    5   14   11
 -0.000757742276498834    5    5   14   12
 0.04159012929383732    5    5   14   14
 0.04154795473412622    5    5   15   15
 0.02939375656138907    5    5   16   16
 0.02939375656138908    5    5   17   17
 -0.0001536095520867024    5    5   18   16
 -0.0002680386921597645    5    5   18   17
 0.02939624383193367    5    5   18   18
 -0.0001536095520867025    5    5   19   16
 -0.0002680386921597645    5    5   19   17
 7.466877507960848e-06    5    5   19   18
 0.02939624383193369    5    5   19   19
 0.0293887820202998    5    5   20   20
 0.04158313743281426    5    5   21   21
 0.04158313743281426    5    5   22   22
 -0.0002176786593008311    5    5   23   21
 -0.0003798351232555708    5    5   23   22
 0.04157963781077811    5    5   23   23
 -0.0002176786593008311    5    5   24   21
 -0.0003798351232555708    5    5   24   22
 1.06134868545121e-05    5    5   24   23
 0.04157963781077809    5    5   24   24
 -0.0003072190794473292    5    5   25   21
 -0.0005360773411741323    5    5   25   22
 1.495908076449742e-05    5    5   25   23
 1.495908076449318e-05    5    5   25   24
 0.04159013667688653    5    5   25   25
 0.04158313743281426    5    5   26   26
 0.04158313743281426    5    5   27   27
 -0.0002176786593008311    5    5   28   26
 -0.0003798351232555708    5    5   28   27
 0.04157963781077811    5    5   28   28
 -0.0002176786593008311    5    5   29   26
 -0.0003798351232555708    5    5   29   27
 1.06134868545121e-05    5    5   29   28
 0.04157963781077809    5    5   29   29
 0.0003072190794473292    5    5   30   26
 0.0005360773411741323    5    5   30   27
 -1.495908076449742e-05    5    5   30   28
 -1.495908076449318e-05    5    5   30   29
 0.04159013667688653    5    5   30   30
 0.04157609498802628    6    6    1    1
 0.04157609498802629    6    6    2    2
 0.0004346944238798387    6    6    3    1
 0.0007585135382735103    6    6    3    2