[Molden Format]
made by pyscf v[2.0.1]
[Atoms] (AU)
H   1   1    -6.47439067537236    -4.23374240947556    10.37157286206289
H   2   1   -10.63424479337743    -2.03523503615657     9.85435482176943
C   3   6    -6.90411439609845    -3.27432845603388     8.60127742857033
H   4   1    -3.33933503471892    -4.22731734065204     6.92376754779393
C   5   6    -9.27345301107813    -2.01973928193514     8.30477939962608
H   6   1   -11.64657107830693     0.18216959840807     5.86079660272608
C   7   6    -5.15101547033945    -3.27319462035914     6.69076431663506
H   8   1    -0.56748475520689     2.04695133812888    -9.89403907038529
C   9   6    -9.84509516375906    -0.79179524619276     6.09417777910987
C   10   6    -5.66180844180938    -2.00991270608740     4.36016508720897
H   11   1    -2.08436791539526    -2.89676117634578     2.64127020430459
H   12   1    -0.80691305518928    -1.51726110541329    -1.61873939830243
H   13   1     0.44616433800981    -0.18500418759492    -5.90974050935232
C   14   6    -1.92619783876917     2.02767613165831    -8.34314083995475
H   15   1    -4.72204764006318     4.25547425990806   -10.39991875393136
C   16   6    -8.07668945639107    -0.74152853127933     4.05251767412978
H   17   1   -10.39632827429469     1.50119843335449     1.57036240951357
C   18   6    -3.89529246056596    -1.94112667515323     2.40335368522185
C   19   6    -2.61160150414892    -0.54707571306159    -1.84664036892498
C   20   6    -1.35512260392561     0.78990552006820    -6.13707456213749
C   21   6    -4.29345775501182     3.28717859368093    -8.63415866313777
H   22   1    -7.85672533549170     4.23525419037522    -6.95173549443749
C   23   6    -8.59126188011014     0.53233584928998     1.80166488716033
C   24   6    -4.39229043132657    -0.64288482757703     0.13303671916938
C   25   6    -3.12333933868113     0.73207990065650    -4.09503651193249
C   26   6    -6.04674565338328     3.27697407260827    -6.72440144165232
C   27   6    -6.81132884338231     0.62531037461858    -0.17820117354649
C   28   6    -5.53727549020054     2.00140893852686    -4.40155008933694
C   29   6    -7.30662606063081     1.92506400309443    -2.44814019437404
H   30   1    -9.11660574273923     2.88296617563646    -2.68662363129415
H   31   1    13.14172238806281     9.48812589882872   -10.92526261656045
H   32   1    17.25471129817867    10.93867967204486    -9.06048087683965
C   33   6    13.47431418598626     9.28592520350026    -8.90042107408899
H   34   1     9.82600892990095     7.64923340701446    -8.16909706388230
C   35   6    15.81341718297289    10.11192449254765    -7.83896190992079
H   36   1    18.03365640672438    10.52596348643985    -4.47562735341989
C   37   6    11.63296505021006     8.25829213696178    -7.38599455786254
H   38   1     8.44537502329372     6.18110518083986    -3.97484993041015
C   39   6    16.25523515089620     9.89007064552371    -5.29274492968183
C   40   6    12.03056342681855     7.95064472388258    -4.73055140762372
C   41   6    10.22039477209768     6.84232035182518    -3.16170077900980
C   42   6    14.40727197368403     8.79686408246282    -3.65454135229637
H   43   1    16.61787359420024     9.16422684107827    -0.25700275294085
H   44   1     7.04111954012942     4.79177853405963     0.24301877961907
C   45   6    10.64066986220095     6.54903485729268    -0.54650879522422
C   46   6    14.83416110522328     8.52228687656352    -1.06542758902978
C   47   6     8.82237538514445     5.43844281388579     1.05276642399520
C   48   6    13.01511073771695     7.41471839495593     0.53479249325191
H   49   1    15.20587023392523     7.78793930455753     3.96596821762470
H   50   1     5.62117933013123     3.43665593013402     4.46447796928496
C   51   6     9.24718581794667     5.16537738888614     3.64263607771161
C   52   6    13.43330712908320     7.12294468132309     3.15055139487487
C   53   6     7.39903366812204     4.07406055194982     5.28178451815935
H   54   1     6.39388834246589     3.03905755352553     9.05103224621682
C   55   6    11.62219361130004     6.01575414494042     4.71864613303896
H   56   1    13.82523632731799     6.32415744846944     8.15700281668509
C   57   6     7.83896190992079     3.85957663681168     7.82932430668551
C   58   6    12.01865815223379     5.71264207456018     7.37484517372761
C   59   6    10.17693107123268     4.68822154243346     8.89040552562879
H   60   1    10.50801108825648     4.49244591592852    10.91638090377499
H   61   1     1.94301640127780     9.48812589882872   -10.92526261656045
H   62   1     6.05600531139365    10.93867967204486    -9.06048087683965
C   63   6     2.27579717181370     9.28592520350026    -8.90042107408899
H   64   1    -1.37269705688406     7.64923340701446    -8.16909706388230
C   65   6     4.61471119618788    10.11192449254765    -7.83896190992079
H   66   1     6.83495041993937    10.52596348643985    -4.47562735341989
C   67   6     0.43425906342505     8.25829213696178    -7.38599455786254
H   68   1    -2.75333096349130     6.18110518083986    -3.97484993041015
C   69   6     5.05652916411119     9.89007064552371    -5.29274492968183
C   70   6     0.83204641264600     7.95064472388258    -4.73055140762372
C   71   6    -0.97812224207488     6.84232035182518    -3.16170077900980
C   72   6     3.20856598689902     8.79686408246282    -3.65454135229637
H   73   1     5.41935658002768     9.16422684107827    -0.25700275294085
H   74   1    -4.15739747404314     4.79177853405963     0.24301877961907
H   75   1    -5.57752665665378     3.43665593013402     4.46447796928496
C   76   6    -0.55784715197161     6.54903485729268    -0.54650879522422
C   77   6     3.63564409105072     8.52228687656352    -1.06542758902978
H   78   1    -4.80462867170667     3.03905755352553     9.05103224621682
C   79   6    -2.37633060164057     5.43844281388579     1.05276642399520
C   80   6    -3.79948334605051     4.07406055194982     5.28178451815935
C   81   6     1.81659372354439     7.41471839495593     0.53479249325191
H   82   1     4.00735321975267     7.78793930455753     3.96596821762470
C   83   6    -3.35974407686422     3.85957663681168     7.82932430668551
H   84   1    -0.69069489852853     4.49244591592852    10.91638090377499
C   85   6    -1.95152016883834     5.16537738888614     3.64263607771161
C   86   6     2.23460114229819     7.12294468132309     3.15055139487487
C   87   6    -1.02158594293987     4.68822154243346     8.89040552562879
C   88   6     0.42348762451503     6.01575414494042     4.71864613303896
C   89   6     0.82014113806124     5.71264207456018     7.37484517372761
H   90   1     2.62653034053298     6.32415744846944     8.15700281668509
H   91   1     6.47665834672184     4.25547425990806   -10.39991875393136
H   92   1    10.63122123157813     2.04695133812888    -9.89403907038529
C   93   6     6.90524823177319     3.28717859368093    -8.63415866313777
H   94   1     3.34198065129331     4.23525419037522    -6.95173549443749
H   95   1     0.56446119340758    -2.03523503615657     9.85435482176943
C   96   6     9.27231917540339     2.02767613165831    -8.34314083995475
H   97   1    11.64468135218237    -0.18500418759492    -5.90974050935232
C   98   6     5.15196033340173     3.27697407260827    -6.72440144165232
H   99   1    -0.44786509152192     0.18216959840807     5.86079660272608
C   100   6     1.92506400309443    -2.01973928193514     8.30477939962608
H   101   1     4.72431531141265    -4.23374240947556    10.37157286206289
H   102   1     0.80237771249033     1.50119843335449     1.57036240951357
H   103   1     2.08210024404578     2.88296617563646    -2.68662363129415
C   104   6     9.84358338285941     0.78990552006820    -6.13707456213749
C   105   6     5.66143049658447     2.00140893852686    -4.40155008933694
C   106   6     1.35342185041350    -0.79179524619276     6.09417777910987
C   107   6     4.29459159068656    -3.27432845603388     8.60127742857033
H   108   1     7.85937095206609    -4.22731734065204     6.92376754779393
C   109   6     2.60725513406242     0.53233584928998     1.80166488716033
C   110   6     3.89207992615420     1.92506400309443    -2.44814019437404
C   111   6     8.07536664810388     0.73207990065650    -4.09503651193249
H   112   1    10.39179293159573    -1.51726110541329    -1.61873939830243
C   113   6     3.12201653039394    -0.74152853127933     4.05251767412978
C   114   6     6.04769051644557    -3.27319462035914     6.69076431663506
C   115   6     4.38737714340270     0.62531037461858    -0.17820117354649
C   116   6     8.58710448263610    -0.54707571306159    -1.84664036892498
C   117   6     5.53689754497563    -2.00991270608740     4.36016508720897
C   118   6     6.80622658284598    -0.64288482757703     0.13303671916938
C   119   6     7.30341352621905    -1.94112667515323     2.40335368522185
H   120   1     9.11414909877729    -2.89676117634578     2.64127020430459
[GTO]
1 0
 s    3 1.00
             18.731137    0.03349459952309
             2.8253937    0.23472694665786
             0.6401217    0.81375731841339
 s    1 1.00
             0.1612778                   1

2 0
 s    3 1.00
             18.731137    0.03349459952309
             2.8253937    0.23472694665786
             0.6401217    0.81375731841339
 s    1 1.00
             0.1612778                   1

3 0
 s    6 1.00
             3047.5249  0.0018347001629433
             457.36951    0.01403730124668
             103.94869   0.068842606114048
             29.210155    0.23218442062076
              9.286663    0.46794134155879
              3.163927    0.36231203217765
 s    3 1.00
             7.8682724   -0.11933240861517
             1.8812885   -0.16085421161283
             0.5442493     1.1434564825515
 s    1 1.00
             0.1687144                   1
 p    3 1.00
             7.8682724   0.068999095584993
             1.8812885    0.31642397975315
             0.5442493    0.74430825237435
 p    1 1.00
             0.1687144                   1
 d    1 1.00
                   0.8                   1

4 0
 s    3 1.00
             18.731137    0.03349459952309
             2.8253937    0.23472694665786
             0.6401217    0.81375731841339
 s    1 1.00
             0.1612778                   1

5 0
 s    6 1.00
             3047.5249  0.0018347001629433
             457.36951    0.01403730124668
             103.94869   0.068842606114048
             29.210155    0.23218442062076
              9.286663    0.46794134155879
              3.163927    0.36231203217765
 s    3 1.00
             7.8682724   -0.11933240861517
             1.8812885   -0.16085421161283
             0.5442493     1.1434564825515
 s    1 1.00
             0.1687144                   1
 p    3 1.00
             7.8682724   0.068999095584993
             1.8812885    0.31642397975315
             0.5442493    0.74430825237435
 p    1 1.00
             0.1687144                   1
 d    1 1.00
                   0.8                   1

6 0
 s    3 1.00
             18.731137    0.03349459952309
             2.8253937    0.23472694665786
             0.6401217    0.81375731841339
 s    1 1.00
             0.1612778                   1

7 0
 s    6 1.00
             3047.5249  0.0018347001629433
             457.36951    0.01403730124668
             103.94869   0.068842606114048
             29.210155    0.23218442062076
              9.286663    0.46794134155879
              3.163927    0.36231203217765
 s    3 1.00
             7.8682724   -0.11933240861517
             1.8812885   -0.16085421161283
             0.5442493     1.1434564825515
 s    1 1.00
             0.1687144                   1
 p    3 1.00
             7.8682724   0.068999095584993
             1.8812885    0.31642397975315
             0.5442493    0.74430825237435
 p    1 1.00
             0.1687144                   1
 d    1 1.00
                   0.8                   1

8 0
 s    3 1.00
             18.731137    0.03349459952309
             2.8253937    0.23472694665786
             0.6401217    0.81375731841339
 s    1 1.00
             0.1612778                   1

9 0
 s    6 1.00
             3047.5249  0.0018347001629433
             457.36951    0.01403730124668
             103.94869   0.068842606114048
             29.210155    0.23218442062076
              9.286663    0.46794134155879
              3.163927    0.36231203217765
 s    3 1.00
             7.8682724   -0.11933240861517
             1.8812885   -0.16085421161283
             0.5442493     1.1434564825515
 s    1 1.00
             0.1687144                   1
 p    3 1.00
             7.8682724   0.068999095584993
             1.8812885    0.31642397975315
             0.5442493    0.74430825237435
 p    1 1.00
             0.1687144                   1
 d    1 1.00
                   0.8                   1

10 0
 s    6 1.00
             3047.5249  0.0018347001629433
             457.36951    0.01403730124668
             103.94869   0.068842606114048
             29.210155    0.23218442062076
              9.286663    0.46794134155879
              3.163927    0.36231203217765
 s    3 1.00
             7.8682724   -0.11933240861517
             1.8812885   -0.16085421161283
             0.5442493     1.1434564825515
 s    1 1.00
             0.1687144                   1
 p    3 1.00
             7.8682724   0.068999095584993
             1.8812885    0.31642397975315
             0.5442493    0.74430825237435
 p    1 1.00
             0.1687144                   1
 d    1 1.00
                   0.8                   1

11 0
 s    3 1.00
             18.731137    0.03349459952309
             2.8253937    0.23472694665786
             0.6401217    0.81375731841339
 s    1 1.00
             0.1612778                   1

12 0
 s    3 1.00
             18.731137    0.03349459952309
             2.8253937    0.23472694665786
             0.6401217    0.81375731841339
 s    1 1.00
             0.1612778                   1

13 0
 s    3 1.00
             18.731137    0.03349459952309
             2.8253937    0.23472694665786
             0.6401217    0.81375731841339
 s    1 1.00
             0.1612778                   1

14 0
 s    6 1.00
             3047.5249  0.0018347001629433
             457.36951    0.01403730124668
             103.94869   0.068842606114048
             29.210155    0.23218442062076
              9.286663    0.46794134155879
              3.163927    0.36231203217765
 s    3 1.00
             7.8682724   -0.11933240861517
             1.8812885   -0.16085421161283
             0.5442493     1.1434564825515
 s    1 1.00
             0.1687144                   1
 p    3 1.00
             7.8682724   0.068999095584993
             1.8812885    0.31642397975315
             0.5442493    0.74430825237435
 p    1 1.00
             0.1687144                   1
 d    1 1.00
                   0.8                   1

15 0
 s    3 1.00
             18.731137    0.03349459952309
             2.8253937    0.23472694665786
             0.6401217    0.81375731841339
 s    1 1.00
             0.1612778                   1

16 0
 s    6 1.00
             3047.5249  0.0018347001629433
             457.36951    0.01403730124668
             103.94869   0.068842606114048
             29.210155    0.23218442062076
              9.286663    0.46794134155879
              3.163927    0.36231203217765
 s    3 1.00
             7.8682724   -0.11933240861517
             1.8812885   -0.16085421161283
             0.5442493     1.1434564825515
 s    1 1.00
             0.1687144                   1
 p    3 1.00
             7.8682724   0.068999095584993
             1.8812885    0.31642397975315
             0.5442493    0.74430825237435
 p    1 1.00
             0.1687144                   1
 d    1 1.00
                   0.8                   1

17 0
 s    3 1.00
             18.731137    0.03349459952309
             2.8253937    0.23472694665786
             0.6401217    0.81375731841339
 s    1 1.00
             0.1612778                   1

18 0
 s    6 1.00
             3047.5249  0.0018347001629433
             457.36951    0.01403730124668
             103.94869   0.068842606114048
             29.210155    0.23218442062076
              9.286663    0.46794134155879
              3.163927    0.36231203217765
 s    3 1.00
             7.8682724   -0.11933240861517
             1.8812885   -0.16085421161283
             0.5442493     1.1434564825515
 s    1 1.00
             0.1687144                   1
 p    3 1.00
             7.8682724   0.068999095584993
             1.8812885    0.31642397975315
             0.5442493    0.74430825237435
 p    1 1.00
             0.1687144                   1
 d    1 1.00
                   0.8                   1

19 0
 s    6 1.00
             3047.5249  0.0018347001629433
             457.36951    0.01403730124668
             103.94869   0.068842606114048
             29.210155    0.23218442062076
              9.286663    0.46794134155879
              3.163927    0.36231203217765
 s    3 1.00
             7.8682724   -0.11933240861517
             1.8812885   -0.16085421161283
             0.5442493     1.1434564825515
 s    1 1.00
             0.1687144                   1
 p    3 1.00
             7.8682724   0.068999095584993
             1.8812885    0.31642397975315
             0.5442493    0.74430825237435
 p    1 1.00
             0.1687144                   1
 d    1 1.00
                   0.8                   1

20 0
 s    6 1.00
             3047.5249  0.0018347001629433
             457.36951    0.01403730124668
             103.94869   0.068842606114048
             29.210155    0.23218442062076
              9.286663    0.46794134155879
              3.163927    0.36231203217765
 s    3 1.00
             7.8682724   -0.11933240861517
             1.8812885   -0.16085421161283
             0.5442493     1.1434564825515
 s    1 1.00
             0.1687144                   1
 p    3 1.00
             7.8682724   0.068999095584993
             1.8812885    0.31642397975315
             0.5442493    0.74430825237435
 p    1 1.00
             0.1687144                   1
 d    1 1.00
                   0.8                   1

21 0
 s    6 1.00
             3047.5249  0.0018347001629433
             457.36951    0.01403730124668
             103.94869   0.068842606114048
             29.210155    0.23218442062076
              9.286663    0.46794134155879
              3.163927    0.36231203217765
 s    3 1.00
             7.8682724   -0.11933240861517
             1.8812885   -0.16085421161283
             0.5442493     1.1434564825515
 s    1 1.00
             0.1687144                   1
 p    3 1.00
             7.8682724   0.068999095584993
             1.8812885    0.31642397975315
             0.5442493    0.74430825237435
 p    1 1.00
             0.1687144                   1
 d    1 1.00
                   0.8                   1

22 0
 s    3 1.00
             18.731137    0.03349459952309
             2.8253937    0.23472694665786
             0.6401217    0.81375731841339
 s    1 1.00
             0.1612778                   1

23 0
 s    6 1.00
             3047.5249  0.0018347001629433
             457.36951    0.01403730124668
             103.94869   0.068842606114048
             29.210155    0.23218442062076
              9.286663    0.46794134155879
              3.163927    0.36231203217765
 s    3 1.00
             7.8682724   -0.11933240861517
             1.8812885   -0.16085421161283
             0.5442493     1.1434564825515
 s    1 1.00
             0.1687144                   1
 p    3 1.00
             7.8682724   0.068999095584993
             1.8812885    0.31642397975315
             0.5442493    0.74430825237435
 p    1 1.00
             0.1687144                   1
 d    1 1.00
                   0.8                   1

24 0
 s    6 1.00
             3047.5249  0.0018347001629433
             457.36951    0.01403730124668
             103.94869   0.068842606114048
             29.210155    0.23218442062076
              9.286663    0.46794134155879
              3.163927    0.36231203217765
 s    3 1.00
             7.8682724   -0.11933240861517
             1.8812885   -0.16085421161283
             0.5442493     1.1434564825515
 s    1 1.00
             0.1687144                   1
 p    3 1.00
             7.8682724   0.068999095584993
             1.8812885    0.31642397975315
             0.5442493    0.74430825237435
 p    1 1.00
             0.1687144                   1
 d    1 1.00
                   0.8                   1

25 0
 s    6 1.00
             3047.5249  0.0018347001629433
             457.36951    0.01403730124668
             103.94869   0.068842606114048
             29.210155    0.23218442062076
              9.286663    0.46794134155879
              3.163927    0.36231203217765
 s    3 1.00
             7.8682724   -0.11933240861517
             1.8812885   -0.16085421161283
             0.5442493     1.1434564825515
 s    1 1.00
             0.1687144                   1
 p    3 1.00
             7.8682724   0.068999095584993
             1.8812885    0.31642397975315
             0.5442493    0.74430825237435
 p    1 1.00
             0.1687144                   1
 d    1 1.00
                   0.8                   1

26 0
 s    6 1.00
             3047.5249  0.0018347001629433
             457.36951    0.01403730124668
             103.94869   0.068842606114048
             29.210155    0.23218442062076
              9.286663    0.46794134155879
              3.163927    0.36231203217765
 s    3 1.00
             7.8682724   -0.11933240861517
             1.8812885   -0.16085421161283
             0.5442493     1.1434564825515
 s    1 1.00
             0.1687144                   1
 p    3 1.00
             7.8682724   0.068999095584993
             1.8812885    0.31642397975315
             0.5442493    0.74430825237435
 p    1 1.00
             0.1687144                   1
 d    1 1.00
                   0.8                   1

27 0
 s    6 1.00
             3047.5249  0.0018347001629433
             457.36951    0.01403730124668
             103.94869   0.068842606114048
             29.210155    0.23218442062076
              9.286663    0.46794134155879
              3.163927    0.36231203217765
 s    3 1.00
             7.8682724   -0.11933240861517
             1.8812885   -0.16085421161283
             0.5442493     1.1434564825515
 s    1 1.00
             0.1687144                   1
 p    3 1.00
             7.8682724   0.068999095584993
             1.8812885    0.31642397975315
             0.5442493    0.74430825237435
 p    1 1.00
             0.1687144                   1
 d    1 1.00
                   0.8                   1

28 0
 s    6 1.00
             3047.5249  0.0018347001629433
             457.36951    0.01403730124668
             103.94869   0.068842606114048
             29.210155    0.23218442062076
              9.286663    0.46794134155879
              3.163927    0.36231203217765
 s    3 1.00
             7.8682724   -0.11933240861517
             1.8812885   -0.16085421161283
             0.5442493     1.1434564825515
 s    1 1.00
             0.1687144                   1
 p    3 1.00
             7.8682724   0.068999095584993
             1.8812885    0.31642397975315
             0.5442493    0.74430825237435
 p    1 1.00
             0.1687144                   1
 d    1 1.00
                   0.8                   1

29 0
 s    6 1.00
             3047.5249  0.0018347001629433
             457.36951    0.01403730124668
             103.94869   0.068842606114048
             29.210155    0.23218442062076
              9.286663    0.46794134155879
              3.163927    0.36231203217765
 s    3 1.00
             7.8682724   -0.11933240861517
             1.8812885   -0.16085421161283
             0.5442493     1.1434564825515
 s    1 1.00
             0.1687144                   1
 p    3 1.00
             7.8682724   0.068999095584993
             1.8812885    0.31642397975315
             0.5442493    0.74430825237435
 p    1 1.00
             0.1687144                   1
 d    1 1.00
                   0.8                   1

30 0
 s    3 1.00
             18.731137    0.03349459952309
             2.8253937    0.23472694665786
             0.6401217    0.81375731841339
 s    1 1.00
             0.1612778                   1

31 0
 s    3 1.00
             18.731137    0.03349459952309
             2.8253937    0.23472694665786
             0.6401217    0.81375731841339
 s    1 1.00
             0.1612778                   1

32 0
 s    3 1.00
             18.731137    0.03349459952309
             2.8253937    0.23472694665786
             0.6401217    0.81375731841339
 s    1 1.00
             0.1612778                   1

33 0
 s    6 1.00
             3047.5249  0.0018347001629433
             457.36951    0.01403730124668
             103.94869   0.068842606114048
             29.210155    0.23218442062076
              9.286663    0.46794134155879
              3.163927    0.36231203217765
 s    3 1.00
             7.8682724   -0.11933240861517
             1.8812885   -0.16085421161283
             0.5442493     1.1434564825515
 s    1 1.00
             0.1687144                   1
 p    3 1.00
             7.8682724   0.068999095584993
             1.8812885    0.31642397975315
             0.5442493    0.74430825237435
 p    1 1.00
             0.1687144                   1
 d    1 1.00
                   0.8                   1

34 0
 s    3 1.00
             18.731137    0.03349459952309
             2.8253937    0.23472694665786
             0.6401217    0.81375731841339
 s    1 1.00
             0.1612778                   1

35 0
 s    6 1.00
             3047.5249  0.0018347001629433
             457.36951    0.01403730124668
             103.94869   0.068842606114048
             29.210155    0.23218442062076
              9.286663    0.46794134155879
              3.163927    0.36231203217765
 s    3 1.00
             7.8682724   -0.11933240861517
             1.8812885   -0.16085421161283
             0.5442493     1.1434564825515
 s    1 1.00
             0.1687144                   1
 p    3 1.00
             7.8682724   0.068999095584993
             1.8812885    0.31642397975315
             0.5442493    0.74430825237435
 p    1 1.00
             0.1687144                   1
 d    1 1.00
                   0.8                   1

36 0
 s    3 1.00
             18.731137    0.03349459952309
             2.8253937    0.23472694665786
             0.6401217    0.81375731841339
 s    1 1.00
             0.1612778                   1

37 0
 s    6 1.00
             3047.5249  0.0018347001629433
             457.36951    0.01403730124668
             103.94869   0.068842606114048
             29.210155    0.23218442062076
              9.286663    0.46794134155879
              3.163927    0.36231203217765
 s    3 1.00
             7.8682724   -0.11933240861517
             1.8812885   -0.16085421161283
             0.5442493     1.1434564825515
 s    1 1.00
             0.1687144                   1
 p    3 1.00
             7.8682724   0.068999095584993
             1.8812885    0.31642397975315
             0.5442493    0.74430825237435
 p    1 1.00
             0.1687144                   1
 d    1 1.00
                   0.8                   1

38 0
 s    3 1.00
             18.731137    0.03349459952309
             2.8253937    0.23472694665786
             0.6401217    0.81375731841339
 s    1 1.00
             0.1612778                   1

39 0
 s    6 1.00
             3047.5249  0.0018347001629433
             457.36951    0.01403730124668
             103.94869   0.068842606114048
             29.210155    0.23218442062076
              9.286663    0.46794134155879
              3.163927    0.36231203217765
 s    3 1.00
             7.8682724   -0.11933240861517
             1.8812885   -0.16085421161283
             0.5442493     1.1434564825515
 s    1 1.00
             0.1687144                   1
 p    3 1.00
             7.8682724   0.068999095584993
             1.8812885    0.31642397975315
             0.5442493    0.74430825237435
 p    1 1.00
             0.1687144                   1
 d    1 1.00
                   0.8                   1

40 0
 s    6 1.00
             3047.5249  0.0018347001629433
             457.36951    0.01403730124668
             103.94869   0.068842606114048
             29.210155    0.23218442062076
              9.286663    0.46794134155879
              3.163927    0.36231203217765
 s    3 1.00
             7.8682724   -0.11933240861517
             1.8812885   -0.16085421161283
             0.5442493     1.1434564825515
 s    1 1.00
             0.1687144                   1
 p    3 1.00
             7.8682724   0.068999095584993
             1.8812885    0.31642397975315
             0.5442493    0.74430825237435
 p    1 1.00
             0.1687144                   1
 d    1 1.00
                   0.8                   1

41 0
 s    6 1.00
             3047.5249  0.0018347001629433
             457.36951    0.01403730124668
             103.94869   0.068842606114048
             29.210155    0.23218442062076
              9.286663    0.46794134155879
              3.163927    0.36231203217765
 s    3 1.00
             7.8682724   -0.11933240861517
             1.8812885   -0.16085421161283
             0.5442493     1.1434564825515
 s    1 1.00
             0.1687144                   1
 p    3 1.00
             7.8682724   0.068999095584993
             1.8812885    0.31642397975315
             0.5442493    0.74430825237435
 p    1 1.00
             0.1687144                   1
 d    1 1.00
                   0.8                   1

42 0
 s    6 1.00
             3047.5249  0.0018347001629433