 &FCI NORB=  35,NELEC=14,MS2=0,
  ORBSYM=1,1,1,1,1,1,1,1,1,1,1,1,1,1,1,1,1,1,1,1,1,1,1,1,1,1,1,1,1,1,1,1,1,1,1,
  ISYM=1,
 &END
 1.686794332126225    1    1    1    1
 0.06195244187238037    1    1    2    1
 0.6461869220172065    1    1    2    2
 1.104396432285518    1    1    3    3
 1.1342469480941e-15    1    1    4    3
 1.104396432285515    1    1    4    4
 1.104396432285514    1    1    5    5
 1.500146692834932e-15    1    1    6    1
 -1.457960996553708e-15    1    1    6    2
 0.06856497749134842    1    1    6    6
 -2.929507083373388e-15    1    1    7    1
 3.051466369521828e-15    1    1    7    2
 0.06856497749134773    1    1    7    7
 -0.001182228304066365    1    1    8    6
 -0.002062911610323251    1    1    8    7
 0.06869138324225496    1    1    8    8
 0.06850177461589495    1    1    9    9
 0.06850177461589486    1    1   10   10
 1.643691228298525e-15    1    1   11    1
 -1.319317129871426e-15    1    1   11    2
 0.06856497749134849    1    1   11   11
 -2.715247352630887e-15    1    1   12    1
 3.149690711373478e-15    1    1   12    2
 0.06856497749134803    1    1   12   12
 0.06850177461589492    1    1   13   13
 -0.001182228304066375    1    1   14   11
 -0.002062911610323268    1    1   14   12
 0.0686913832422551    1    1   14   14
 0.06850177461589503    1    1   15   15
 3.418603975633528e-15    1    1   16    1
 -3.640045668105e-15    1    1   16    2
 0.04848276053603547    1    1   16   16
 -5.059342462042453e-15    1    1   17    1
 6.402680494845374e-15    1    1   17    2
 0.04848276053603524    1    1   17   17
 -0.0004179808253580012    1    1   18   16
 -0.0007293493943240194    1    1   18   17
 0.04849393333149137    1    1   18   18
 -0.0004179808253579912    1    1   19   16
 -0.0007293493943240189    1    1   19   17
 3.351838636763808e-05    1    1   19   18
 0.04849393333149127    1    1   19   19
 0.04846041494512375    1    1   20   20
 1.437424408817983e-15    1    1   21    1
 -1.424113178177508e-15    1    1   21    2
 0.06856497759543043    1    1   21   21
 -2.889870730904155e-15    1    1   22    1
 3.033427951036452e-15    1    1   22    2
 1.260028017453227e-15    1    1   22    7
 1.165152243556483e-15    1    1   22   12
 0.06856497759543007    1    1   22   22
 -0.0005911141533318575    1    1   23   21
 -0.001031455807427728    1    1   23   22
 0.06854917687641564    1    1   23   23
 -0.0005911141533318555    1    1   24   21
 -0.001031455807427733    1    1   24   22
 4.740215672631849e-05    1    1   24   23
 0.06854917687641555    1    1   24   24
 -0.000835961653955374    1    1   25   21
 -0.001458698794300541    1    1   25   22
 6.703677304059162e-05    1    1   25   23
 6.703677304060339e-05    1    1   25   24
 0.06859657903346005    1    1   25   25
 1.374888246520177e-15    1    1   26    1
 -1.419685051013942e-15    1    1   26    2
 0.06856497759543047    1    1   26   26
 -2.822859494442069e-15    1    1   27    1
 3.041880191997807e-15    1    1   27    2
 1.268702524020447e-15    1    1   27    7
 1.149856870095765e-15    1    1   27   12
 0.06856497759543002    1    1   27   27
 -0.0005911141533318608    1    1   28   26
 -0.001031455807427734    1    1   28   27
 0.06854917687641567    1    1   28   28
 -0.0005911141533318606    1    1   29   26
 -0.001031455807427733    1    1   29   27
 4.740215672631189e-05    1    1   29   28
 0.0685491768764155    1    1   29   29
 0.0008359616539553744    1    1   30   26
 0.001458698794300536    1    1   30   27
 -6.703677304060702e-05    1    1   30   28
 -6.703677304056673e-05    1    1   30   29
 0.06859657903346007    1    1   30   30
 -1.45698228350246e-08    1    1   31    1
 2.033785902831324e-08    1    1   31    2
 2.864329527790563e-12    1    1   31    3
 2.8643845205557e-12    1    1   31    4
 1.006885328549222e-10    1    1   31    6
 -7.213353490674106e-10    1    1   31    7
 -9.018799457149508e-11    1    1   31    8
 -4.473320613370532e-15    1    1   31    9
 1.006885393609648e-10    1    1   31   11
 -7.213353601869702e-10    1    1   31   12
 -4.474468519252658e-15    1    1   31   13
 -9.018799563770537e-11    1    1   31   14
 -2.052838025845667e-10    1    1   31   16
 -1.76795789313293e-10    1    1   31   17
 -3.192296519806679e-11    1    1   31   18
 -3.192296637851477e-11    1    1   31   19
 1.006885356873202e-10    1    1   31   21
 -7.213353716313087e-10    1    1   31   22
 -4.509623625799878e-11    1    1   31   23
 -4.509623559723752e-11    1    1   31   24
 -6.376936827676436e-11    1    1   31   25
 1.006885432326016e-10    1    1   31   26
 -7.213353725001114e-10    1    1   31   27
 -4.509622872753894e-11    1    1   31   28
 -4.509623460881234e-11    1    1   31   29
 6.376937841187667e-11    1    1   31   30
 0.09696552130062254    1    1   31   31
 1.880222220841765e-08    1    1   32    1
 -3.404552307539462e-08    1    1   32    2
 -3.744029471960414e-12    1    1   32    3
 -3.743793873494211e-12    1    1   32    4
 1.582682438617993e-10    1    1   32    6
 7.872139666477088e-10    1    1   32    7
 1.812810591928194e-10    1    1   32    8
 -1.079978907481998e-13    1    1   32    9
 1.582682462418121e-10    1    1   32   11
 7.872139786166045e-10    1    1   32   12
 -1.079982563432541e-13    1    1   32   13
 1.81281058509342e-10    1    1   32   14
 1.324774416273492e-09    1    1   32   16
 -1.604966557102341e-09    1    1   32   17
 6.435789839275056e-11    1    1   32   18
 6.435789680678319e-11    1    1   32   19
 1.582682561544572e-10    1    1   32   21
 7.872140043235277e-10    1    1   32   22
 9.058653157287541e-11    1    1   32   23
 9.058653250067453e-11    1    1   32   24
 1.282614444333384e-10    1    1   32   25
 1.582682505859608e-10    1    1   32   26
 7.872140014531566e-10    1    1   32   27
 9.058653770983269e-11    1    1   32   28
 9.058653310667515e-11    1    1   32   29
 -1.282614366682628e-10    1    1   32   30
 -1.594578735019223e-15    1    1   32   31
 0.09696552130062411    1    1   32   32
 -1.291547067810522e-10    1    1   33    1
 2.602125335296011e-10    1    1   33    2
 2.164243704408996e-14    1    1   33    3
 2.160698369263369e-14    1    1   33    4
 -1.275820899376181e-10    1    1   33    6
 2.56423751484059e-10    1    1   33    7
 -6.290461354649007e-15    1    1   33    8
 2.162125729796189e-14    1    1   33    9
 -1.275256561007994e-10    1    1   33   11
 2.560271041354091e-10    1    1   33   12
 2.162904954295631e-14    1    1   33   13
 -3.691136990524279e-14    1    1   33   14
 -1.275195637671939e-10    1    1   33   16
 2.563362574454929e-10    1    1   33   17
 -1.619276697043149e-14    1    1   33   18
 -1.615238631340772e-14    1    1   33   19
 -1.275538878262731e-10    1    1   33   21
 2.562254508120918e-10    1    1   33   22
 -3.052475154176766e-14    1    1   33   25
 -1.275538908758655e-10    1    1   33   26
 2.562254582775643e-10    1    1   33   27
 3.053654764643866e-14    1    1   33   30
 -0.00167192330931337    1    1   33   31
 -0.002917397591048938    1    1   33   32
 0.09705490366490049    1    1   33   33
 -1.291547204799521e-10    1    1   34    1
 2.602125272292435e-10    1    1   34    2
 2.155788430822884e-14    1    1   34    3
 2.15938029818281e-14    1    1   34    4
 -1.275256720107373e-10    1    1   34    6
 2.560271276664515e-10    1    1   34    7
 -3.691568558316349e-14    1    1   34    8
 2.158893012577551e-14    1    1   34    9
 -1.275821058922384e-10    1    1   34   11
 2.564237743586087e-10    1    1   34   12
 2.157231876352966e-14    1    1   34   13
 -6.287924563619439e-15    1    1   34   14
 -1.275195524786131e-10    1    1   34   16
 2.563362526953241e-10    1    1   34   17
 -1.620615806148795e-14    1    1   34   18
 -1.624136349804829e-14    1    1   34   19
 -1.275538803417307e-10    1    1   34   21
 2.562254387332375e-10    1    1   34   22
 -3.056595100197699e-14    1    1   34   25
 -1.27553877291724e-10    1    1   34   26
 2.562254311746179e-10    1    1   34   27
 3.055304208870915e-14    1    1   34   30
 -0.001671923309313374    1    1   34   31
 -0.002917397591048941    1    1   34   32
 0.00026814709283728    1    1   34   33
 0.09705490366490049    1    1   34   34
 -3.986334307394071e-14    1    1   35   21
 2.804412097181529e-13    1    1   35   22
 1.07991993333773e-14    1    1   35   23
 1.07991993334561e-14    1    1   35   24
 1.527237418572558e-14    1    1   35   25
 3.986334307393748e-14    1    1   35   26
 -2.80441209718143e-13    1    1   35   27
 -1.079919933344327e-14    1    1   35   28
 -1.079919933341869e-14    1    1   35   29
 1.527237418637718e-14    1    1   35   30
 0.09678675657206326    1    1   35   35
 0.06195244187238028    2    1    1    1
 0.01609965082267732    2    1    2    1
 0.02953550710993949    2    1    2    2
 0.07725646222379273    2    1    3    3
 0.07725646222379248    2    1    4    4
 0.07725646222379237    2    1    5    5
 1.331179899396291e-15    2    1    6    2
 1.330707835834237e-15    2    1    7    1
 -3.813417937793034e-15    2    1    7    2
 1.337828352755602e-15    2    1   11    2
 1.340053070452526e-15    2    1   12    1
 -3.807924835812966e-15    2    1   12    2
 -1.730707635180636e-15    2    1   17    7
 -1.730707635180637e-15    2    1   17   12
 1.332024715368299e-15    2    1   21    2
 1.331710347191426e-15    2    1   22    1
 -3.813878743474822e-15    2    1   22    2
 -2.234333999429816e-15    2    1   22    7
 -2.234333999429823e-15    2    1   22   12
 -1.730707544599375e-15    2    1   22   17
 1.33160250200098e-15    2    1   26    2
 1.334261892769935e-15    2    1   27    1
 -3.812958675777383e-15    2    1   27    2
 -2.234333999429816e-15    2    1   27    7
 -2.234333999429823e-15    2    1   27   12
 -1.730707544599375e-15    2    1   27   17
 3.444253544884144e-11    2    1   31    1
 1.301469373302513e-09    2    1   31    2
 3.51640066994166e-13    2    1   31    3
 3.516432069804527e-13    2    1   31    4
 -1.115125396661208e-15    2    1   31   31
 -3.585655438296276e-10    2    1   32    1
 -2.609510752116103e-09    2    1   32    2
 -6.561526840156691e-13    2    1   32    3
 -6.561375469785854e-13    2    1   32    4
 4.401669627626104e-14    2    1   33    1
 2.198394884156068e-13    2    1   33    2
 4.40161018500017e-14    2    1   34    1
 2.198391298209574e-13    2    1   34    2
 0.6461869220172071    2    2    1    1
 0.02953550710993945    2    2    2    1
 0.5283760352114301    2    2    2    2
 0.6318188052700179    2    2    3    3
 0.6318188052700159    2    2    4    4
 0.6318188052700152    2    2    5    5
 -1.216074207720107e-15    2    2    6    2
 0.06856497749134792    2    2    6    6
 -1.370038795999804e-15    2    2    7    1
 2.77522476211352e-15    2    2    7    2
 0.06856497749134723    2    2    7    7
 -0.001182228304066347    2    2    8    6
 -0.00206291161032322    2    2    8    7
 0.06869138324225454    2    2    8    8
 0.06850177461589452    2    2    9    9
 0.06850177461589442    2    2   10   10
 -1.101505961775672e-15    2    2   11    2
 0.068564977491348    2    2   11   11
 -1.283979199087114e-15    2    2   12    1
 2.855336350493024e-15    2    2   12    2
 0.06856497749134756    2    2   12   12
 0.06850177461589449    2    2   13   13
 -0.001182228304066358    2    2   14   11
 -0.002062911610323237    2    2   14   12
 0.06869138324225468    2    2   14   14
 0.06850177461589459    2    2   15   15
 -2.685207105516499e-15    2    2   16    2
 0.04848276053603526    2    2   16   16
 -1.087646109925433e-15    2    2   17    1
 4.653799457468978e-15    2    2   17    2
 0.04848276053603504    2    2   17   17
 -0.0004179808253579995    2    2   18   16
 -0.0007293493943240166    2    2   18   17
 0.04849393333149116    2    2   18   18
 -0.0004179808253579896    2    2   19   16
 -0.0007293493943240158    2    2   19   17
 3.351838636763824e-05    2    2   19   18
 0.04849393333149107    2    2   19   19
 0.04846041494512356    2    2   20   20
 -1.186787205339502e-15    2    2   21    2
 0.06856497759542994    2    2   21   21
 -1.354007349678566e-15    2    2   22    1
 2.759772434947203e-15    2    2   22    2
 1.260028017453383e-15    2    2   22    7
 1.16515224355664e-15    2    2   22   12
 0.06856497759542962    2    2   22   22
 -0.000591114153331853    2    2   23   21
 -0.001031455807427721    2    2   23   22
 0.06854917687641522    2    2   23   23
 -0.0005911141533318507    2    2   24   21
 -0.001031455807427726    2    2   24   22
 4.740215672631846e-05    2    2   24   23
 0.06854917687641514    2    2   24   24
 -0.0008359616539553566    2    2   25   21
 -0.001458698794300509    2    2   25   22
 6.70367730405897e-05    2    2   25   23
 6.703677304060146e-05    2    2   25   24
 0.06859657903345963    2    2   25   25
 -1.18185284331838e-15    2    2   26    2
 0.06856497759542995    2    2   26   26
 -1.327441384304163e-15    2    2   27    1
 2.765780693360359e-15    2    2   27    2
 1.268702524020603e-15    2    2   27    7
 1.149856870095922e-15    2    2   27   12
 0.06856497759542961    2    2   27   27
 -0.0005911141533318562    2    2   28   26
 -0.001031455807427727    2    2   28   27
 0.06854917687641525    2    2   28   28
 -0.0005911141533318558    2    2   29   26
 -0.001031455807427726    2    2   29   27
 4.740215672631186e-05    2    2   29   28
 0.06854917687641508    2    2   29   29
 0.000835961653955357    2    2   30   26
 0.001458698794300505    2    2   30   27
 -6.703677304060509e-05    2    2   30   28
 -6.70367730405648e-05    2    2   30   29
 0.06859657903345966    2    2   30   30
 -3.006996142913955e-09    2    2   31    1
 1.474197048595354e-08    2    2   31    2
 5.287305272765998e-13    2    2   31    3
 5.287663127509273e-13    2    2   31    4
 1.006885328549379e-10    2    2   31    6
 -7.213353490674197e-10    2    2   31    7
 -9.018799457149342e-11    2    2   31    8
 -4.473320614227298e-15    2    2   31    9
 1.006885393609801e-10    2    2   31   11
 -7.213353601869781e-10    2    2   31   12
 -4.47446851990899e-15    2    2   31   13
 -9.018799563770413e-11    2    2   31   14
 -2.052838025844802e-10    2    2   31   16
 -1.767957893134485e-10    2    2   31   17
 -3.192296519806663e-11    2    2   31   18
 -3.192296637851461e-11    2    2   31   19
 1.006885356873359e-10    2    2   31   21
 -7.213353716313178e-10    2    2   31   22
 -4.509623625799846e-11    2    2   31   23
 -4.509623559723719e-11    2    2   31   24
 -6.376936827676296e-11    2    2   31   25
 1.006885432326177e-10    2    2   31   26
 -7.213353725001205e-10    2    2   31   27
 -4.509622872753862e-11    2    2   31   28
 -4.509623460881202e-11    2    2   31   29
 6.376937841187526e-11    2    2   31   30
 0.09696552130062296    2    2   31   31
 1.181833223560575e-09    2    2   32    1
 -2.299787523164691e-08    2    2   32    2
 7.858636670948137e-13    2    2   32    3
 7.860066723368033e-13    2    2   32    4
 1.582682438617761e-10    2    2   32    6
 7.872139666476872e-10    2    2   32    7
 1.812810591928162e-10    2    2   32    8
 -1.079978907465679e-13    2    2   32    9
 1.582682462417923e-10    2    2   32   11
 7.872139786165813e-10    2    2   32   12
 -1.079982563419307e-13    2    2   32   13
 1.812810585093394e-10    2    2   32   14
 1.324774416273323e-09    2    2   32   16
 -1.604966557102038e-09    2    2   32   17
 6.435789839275023e-11    2    2   32   18
 6.435789680678285e-11    2    2   32   19
 1.58268256154434e-10    2    2   32   21
 7.872140043235095e-10    2    2   32   22
 9.058653157287478e-11    2    2   32   23
 9.05865325006739e-11    2    2   32   24
 1.282614444333356e-10    2    2   32   25
 1.582682505859384e-10    2    2   32   26
 7.872140014531368e-10    2    2   32   27
 9.058653770983205e-11    2    2   32   28
 9.058653310667451e-11    2    2   32   29
 -1.2826143666826e-10    2    2   32   30
 0.09696552130062219    2    2   32   32
 -1.279375385859533e-10    2    2   33    1
 2.592902997583626e-10    2    2   33    2
 2.162534453105599e-14    2    2   33    3
 2.160355939531876e-14    2    2   33    4
 -1.27582089937604e-10    2    2   33    6
 2.564237514840309e-10    2    2   33    7
 -6.290461354646817e-15    2    2   33    8
 2.162125729795959e-14    2    2   33    9
 -1.275256561007853e-10    2    2   33   11
 2.560271041353807e-10    2    2   33   12
 2.162904954295382e-14    2    2   33   13
 -3.691136990524019e-14    2    2   33   14
 -1.275195637671799e-10    2    2   33   16
 2.563362574454646e-10    2    2   33   17
 -1.619276697042913e-14    2    2   33   18
 -1.615238631340536e-14    2    2   33   19
 -1.27553887826259e-10    2    2   33   21
 2.562254508120635e-10    2    2   33   22
 -3.052475154176428e-14    2    2   33   25
 -1.275538908758513e-10    2    2   33   26
 2.56225458277536e-10    2    2   33   27
 3.053654764643529e-14    2    2   33   30
 -0.001671923309313187    2    2   33   31
 -0.002917397591048616    2    2   33   32
 0.09705490366490113    2    2   33   33
 -1.279375442166757e-10    2    2   34    1
 2.592902946497745e-10    2    2   34    2
 2.157404936436127e-14    2    2   34    3
 2.159552317218778e-14    2    2   34    4
 -1.275256720107232e-10    2    2   34    6
 2.560271276664231e-10    2    2   34    7
 -3.691568558316085e-14    2    2   34    8
 2.1588930125773e-14    2    2   34    9
 -1.275821058922243e-10    2    2   34   11
 2.564237743585805e-10    2    2   34   12
 2.157231876352737e-14    2    2   34   13
 -6.287924563617286e-15    2    2   34   14
 -1.27519552478599e-10    2    2   34   16
 2.563362526952959e-10    2    2   34   17
 -1.620615806148558e-14    2    2   34   18
 -1.624136349804593e-14    2    2   34   19
 -1.275538803417166e-10    2    2   34   21
 2.562254387332092e-10    2    2   34   22
 -3.056595100197361e-14    2    2   34   25
 -1.275538772917099e-10    2    2   34   26
 2.562254311745897e-10    2    2   34   27
 3.055304208870578e-14    2    2   34   30
 -0.001671923309313191    2    2   34   31
 -0.002917397591048618    2    2   34   32
 0.0002681470928372136    2    2   34   33
 0.09705490366490113    2    2   34   34
 -3.98633430739922e-14    2    2   35   21
 2.804412097183027e-13    2    2   35   22
 1.079919933337723e-14    2    2   35   23
 1.079919933345603e-14    2    2   35   24
 1.527237418572526e-14    2    2   35   25
 3.986334307399059e-14    2    2   35   26
 -2.804412097182953e-13    2    2   35   27
 -1.079919933344319e-14    2    2   35   28
 -1.079919933341862e-14    2    2   35   29
 1.527237418637685e-14    2    2   35   30
 0.09678675657206393    2    2   35   35
 0.1364260178333787    3    1    3    1
 0.07540390134933653    3    1    3    2
 0.001182228304066374    3    1    6    6
 0.00118222830406635    3    1    7    7
 -4.076902856453201e-05    3    1    8    6
 -7.113930708484544e-05    3    1    8    7
 0.001188766939182416    3    1    8    8
 0.001178958986508347    3    1    9    9
 0.001178958986508346    3    1   10   10
 2.03845142822661e-05    3    1   13   11
 3.556965354242302e-05    3    1   13   12
 -3.269317558022743e-06    3    1   14   13
 0.000417980825358005    3    1   16   16
 0.0004179808253580027    3    1   17   17
 -3.603507070046049e-06    3    1   18   16
 -6.287885806075809e-06    3    1   18   17
 0.0004176918557811115    3    1   18   18
 -1.081052121013816e-05    3    1   19   16
 -1.886365741822747e-05    3    1   19   17
 8.66908730673657e-07    3    1   19   18
 0.0004188477340886758    3    1   19   19
 0.0004174028862042207    3    1   20   20
 0.0005911141533318636    3    1   21   21
 0.0005911141533318518    3    1   22   22
 5.096128619428843e-06    3    1   23   21
 8.892413470867379e-06    3    1   23   22
 0.000588253500450196    3    1   23   23
 -1.528838575566874e-05    3    1   24   21
 -2.667724023354057e-05    3    1   24   22
 4.086646934626075e-07    3    1   24   23
 0.0005915228180253267    3    1   24   24
 -2.162104251873921e-05    3    1   25   21
 -3.772731500826599e-05    3    1   25   22
 5.779391529277129e-07    3    1   25   23
 2.889695784034702e-06    3    1   25   24
 0.0005935661415200699    3    1   25   25
 0.0005911141533318638    3    1   26   26
 0.0005911141533318517    3    1   27   27
 5.096128619428816e-06    3    1   28   26
 8.892413470867323e-06    3    1   28   27
 0.0005882535004501962    3    1   28   28
 -1.528838575566877e-05    3    1   29   26
 -2.667724023354055e-05    3    1   29   27
 4.086646934625513e-07    3    1   29   28
 0.000591522818025326    3    1   29   29
 2.162104251873922e-05    3    1   30   26
 3.772731500826594e-05    3    1   30   27
 -5.77939152927847e-07    3    1   30   28
 -2.889695784034384e-06    3    1   30   29
 0.0005935661415200701    3    1   30   30
 1.492903199720475e-10    3    1   31    1
 -4.411542303127903e-10    3    1   31    2
 2.112878763971995e-09    3    1   31    3
 -2.364482486170118e-13    3    1   31    4
 9.334273014657382e-12    3    1   31    6
 -3.368277490443065e-11    3    1   31    7
 -3.109386172914692e-12    3    1   31    8
 -6.041171441977373e-12    3    1   31   11
 -8.998998129935359e-12    3    1   31   12
 1.556528618531214e-12    3    1   31   13
 -1.349576218342693e-15    3    1   31   14
 -7.669137405774676e-12    3    1   31   16
 2.025426548122338e-12    3    1   31   17
 -2.760798381622514e-13    3    1   31   18
 -8.25903592997627e-13    3    1   31   19
 1.646550842245509e-12    3    1   31   21
 -2.134088708233522e-11    3    1   31   22
 3.888020079777412e-13    3    1   31   23
 -1.166337291390063e-12    3    1   31   24
 -1.649821752535804e-12    3    1   31   25
 1.646550938064104e-12    3    1   31   26
 -2.134088709665966e-11    3    1   31   27
 3.888021130595602e-13    3    1   31   28
 -1.16633727328783e-12    3    1   31   29
 1.64982189889792e-12    3    1   31   30
 0.001671923309313497    3    1   31   31
 -3.909653686307096e-10    3    1   32    1
 1.161448101929153e-09    3    1   32    2
 -4.755559993786687e-09    3    1   32    3
 6.540540638057381e-13    3    1   32    4
 -1.851624350632274e-11    3    1   32    6
 7.297858393507159e-11    3    1   32    7
 6.247313628669719e-12    3    1   32    8
 4.278280201096618e-11    3    1   32   11
 -4.723267440143678e-11    3    1   32   12
 -3.134831092187738e-12    3    1   32   13
 1.08382247532783e-14    3    1   32   14
 4.086142884572628e-11    3    1   32   16
 -5.995921691850932e-11    3    1   32   17
 5.608004576683761e-13    3    1   32   18
 1.665251692890372e-12    3    1   32   19
 1.213327951276664e-11    3    1   32   21
 1.287295552591832e-11    3    1   32   22
 -7.810219650417831e-13    3    1   32   23
 2.342845852448565e-12    3    1   32   24
 3.320805583462431e-12    3    1   32   25
 1.213327943988693e-11    3    1   32   26
 1.28729554978793e-11    3    1   32   27
 -7.81021880296779e-13    3    1   32   28
 2.34284587044385e-12    3    1   32   29
 -3.320805465993899e-12    3    1   32   30
 0.001671923309313364    3    1   32   32
 -2.190960586875892e-12    3    1   33    1
 4.38741914111745e-12    3    1   33    2
 4.257128091237805e-13    3    1   33    3
 -2.201397375843865e-12    3    1   33    6
 4.425696956271777e-12    3    1   33    7
 -2.199647356800038e-12    3    1   33   11
 4.411810076528605e-12    3    1   33   12
 -2.197841141795839e-12    3    1   33   16
 4.419107265360277e-12    3    1   33   17
 -2.199359251868351e-12    3    1   33   21
 4.418003908082907e-12    3    1   33   22
 -2.199359301760383e-12    3    1   33   26
 4.418004009501916e-12    3    1   33   27
 -2.882805676421168e-05    3    1   33   31
 -5.030308680430612e-05    3    1   33   32
 0.001667299796039679    3    1   33   33
 -6.58942166465816e-12    3    1   34    1
 1.322259666045816e-11    3    1   34    2
 4.264558998424228e-13    3    1   34    3
 1.117212195604764e-15    3    1   34    4
 -6.595917315601996e-12    3    1   34    6
 1.324589887219244e-11    3    1   34    7
 -1.64467142456687e-15    3    1   34    8
 1.117064191485472e-15    3    1   34    9
 -6.597841033163951e-12    3    1   34   11
 1.326042797654881e-11    3    1   34   12
 -1.116854958400468e-15    3    1   34   14
 -6.596551662645053e-12    3    1   34   16
 1.325517193946202e-11    3    1   34   17
 -1.070786268670384e-15    3    1   34   18
 -6.598042492452221e-12    3    1   34   21
 1.325391340105886e-11    3    1   34   22
 -1.580290410652184e-15    3    1   34   25
 -6.598042443547777e-12    3    1   34   26
 1.32539132957555e-11    3    1   34   27
 1.580112224824702e-15    3    1   34   30
 -8.648417029263582e-05    3    1   34   31
 -0.0001509092604129195    3    1   34   32
 1.387053982155396e-05    3    1   34   33
 0.001685793849135083    3    1   34   34
 -1.298284750494047e-15    3    1   35   21
 1.004616625167816e-14    3    1   35   22
 1.298284750494203e-15    3    1   35   26
 -1.004616625167828e-14    3    1   35   27
 0.001662676282765828    3    1   35   35
 0.0754039013493365    3    2    3    1
 0.07525188015951689    3    2    3    2
 0.002062911610323265    3    2    6    6
 0.002062911610323226    3    2    7    7
 -7.113930708484551e-05    3    2    8    6
 -0.0001241334706933567    3    2    8    7
 0.002074321103946589    3    2    8    8
 0.002057206863511602    3    2    9    9
 0.002057206863511599    3    2   10   10
 3.556965354242295e-05    3    2   13   11
 6.206673534667884e-05    3    2   13   12
 -5.704746811661689e-06    3    2   14   13
 0.0007293493943240248    3    2   16   16
 0.0007293493943240213    3    2   17   17
 -6.287885806075781e-06    3    2   18   16
 -1.097195236243668e-05    3    2   18   17
 0.0007288451611795877    3    2   18   18
 -1.88636574182273e-05    3    2   19   16
 -3.291585708731034e-05    3    2   19   17
 1.512699433304123e-06    3    2   19   18
 0.0007308620937573252    3    2   19   19
 0.0007283409280351537    3    2   20   20
 0.00103145580742774    3    2   21   21
 0.001031455807427719    3    2   22   22
 8.892413470867352e-06    3    2   23   21
 1.551668398544573e-05    3    2   23   22
 0.001026464153935432    3    2   23   23
 -2.667724023354047e-05    3    2   24   21
 -4.655005164388634e-05    3    2   24   22
 7.130933492063333e-07    3    2   24   23
 0.001032168900776946    3    2   24   24
 -3.772731500826588e-05    3    2   25   21
 -6.583171447441991e-05    3    2   25   22
 1.008466287377974e-06    3    2   25   23
 5.042331470734869e-06    3    2   25   24
 0.001035734367570842    3    2   25   25
 0.001031455807427741    3    2   26   26
 0.001031455807427719    3    2   27   27
 8.892413470867301e-06    3    2   28   26
 1.551668398544564e-05    3    2   28   27
 0.001026464153935432    3    2   28   28
 -2.667724023354053e-05    3    2   29   26
 -4.65500516438863e-05    3    2   29   27
 7.130933492062353e-07    3    2   29   28
 0.001032168900776945    3    2   29   29
 3.772731500826587e-05    3    2   30   26
 6.583171447441983e-05    3    2   30   27
 -1.008466287378209e-06    3    2   30   28
 -5.042331470734315e-06    3    2   30   29
 0.001035734367570842    3    2   30   30
 2.59639083433669e-10    3    2   31    1
 -7.700365199092984e-10    3    2   31    2
 2.87998111563327e-09    3    2   31    3
 -3.832361732544595e-13    3    2   31    4
 1.628770019262126e-11    3    2   31    6
 -5.877425466744248e-11    3    2   31    7
 -5.425676931453504e-12    3    2   31    8
 -1.506505886002165e-15    3    2   31    9
 -1.05414518200442e-11    3    2   31   11
 -1.570266729333799e-11    3    2   31   12
 2.7160413499863e-12    3    2   31   13
 -2.35492285226521e-15    3    2   31   14
 -1.338214669799389e-11    3    2   31   16
 3.534237784365699e-12    3    2   31   17
 -4.817413874817512e-13    3    2   31   18
 -1.441148131153935e-12    3    2   31   19
 2.873124283839927e-12    3    2   31   21
 -3.723846196654404e-11    3    2   31   22
 6.784342530250066e-13    3    2   31   23
 -2.035182825251036e-12    3    2   31   24
 -2.878831809865904e-12    3    2   31   25
 2.873124451037137e-12    3    2   31   26
 -3.723846199153924e-11    3    2   31   27
 6.784344363858742e-13    3    2   31   28
 -2.035182793663821e-12    3    2   31   29
 2.878832065258326e-12    3    2   31   30
 0.002917397591048765    3    2   31   31
 -6.80485207843534e-10    3    2   32    1
 2.02711499152782e-09    3    2   32    2
 -5.962102029804637e-09    3    2   32    3
 1.059214512130222e-12    3    2   32    4
 -3.230964237396708e-11    3    2   32    6
 1.273428893444581e-10    3    2   32    7
 1.090115654783876e-11    3    2   32    8
 7.465321096358114e-11    3    2   32   11
 -8.241794928627607e-11    3    2   32   12
 -5.470076663054833e-12    3    2   32   13
 1.891199830180516e-14    3    2   32   14
 7.130053957455767e-11    3    2   32   16
 -1.046249394483618e-10    3    2   32   17
 9.785603772297359e-13    3    2   32   18
 2.9057560536812e-12    3    2   32   19
 2.11717847492667e-11    3    2   32   21
 2.246247135367241e-11    3    2   32   22
 -1.362832605225595e-12    3    2   32   23
 4.088113855496457e-12    3    2   32   24
 5.794590072144533e-12    3    2   32   25
 2.117178462209634e-11    3    2   32   26
 2.246247130474629e-11    3    2   32   27
 -1.362832457350829e-12    3    2   32   28
 4.088113886897088e-12    3    2   32   29
 -5.794589867169682e-12    3    2   32   30
 0.002917397591048535    3    2   32   32
 -3.823089814179584e-12    3    2   33    1
 7.65575942149383e-12    3    2   33    2
 5.117430226486308e-13    3    2   33    3
 -3.841295450247086e-12    3    2   33    6
 7.722553760100838e-12    3    2   33    7
 -3.838241780671268e-12    3    2   33   11
 7.698322056837755e-12    3    2   33   12
 1.109854266700508e-15    3    2   33   13
 -3.83509005279427e-12    3    2   33   16
 7.711055177430285e-12    3    2   33   17
 -3.837739056276562e-12    3    2   33   21
 7.709129890639237e-12    3    2   33   22
 -3.837739143334918e-12    3    2   33   26