[Molden Format]
made by pyscf v[2.0.1]
[Atoms] (AU)
Ne   1   10     0.00000000000000     0.00000000000000     0.00000000000000
Ne   2   10     6.45192855917628     0.00000000000000     0.00000000000000
[GTO]
1 0
 s    6 1.00
            8425.85153  0.0018843481002271
             1268.5194   0.014336899401728
            289.621414    0.07010962330845
             81.859004    0.23737326602861
            26.2515079    0.47300712605701
            9.09472051    0.34840124104199
 s    3 1.00
             26.532131   -0.10711828724221
            6.10175501   -0.14616382133049
            1.69627153       1.12777350255
 s    1 1.00
             0.4458187                   1
 p    3 1.00
             26.532131   0.071909588506007
            6.10175501     0.3495133720292
            1.69627153    0.71994051206015
 p    1 1.00
             0.4458187                   1

2 0
 s    6 1.00
            8425.85153  0.0018843481002271
             1268.5194   0.014336899401728
            289.621414    0.07010962330845
             81.859004    0.23737326602861
            26.2515079    0.47300712605701
            9.09472051    0.34840124104199
 s    3 1.00
             26.532131   -0.10711828724221
            6.10175501   -0.14616382133049
            1.69627153       1.12777350255
 s    1 1.00
             0.4458187                   1
 p    3 1.00
             26.532131   0.071909588506007
            6.10175501     0.3495133720292
            1.69627153    0.71994051206015
 p    1 1.00
             0.4458187                   1

[5d]
[7f]
[9g]

[MO]
 Sym= A
 Ene=               0
 Spin= Alpha
 Occup=    1.00000
   1    6.4965185529063e-10
   2    -5.1293792973716e-07
   3    7.5865939531863e-07
   4     -0.29299004735765
   5    -1.172339231221e-08
   6    -1.3799051575543e-08
   7       1.1114046030138
   8    3.7464423938963e-08
   9    5.1514619258308e-08
  10    1.9250950679376e-06
  11    0.00025788950602854
  12    -0.00041196579947804
  13    -0.0004509755765182
  14    8.7618130726629e-13
  15    1.195567747853e-12
  16    0.0011640789847386
  17    -2.2517189814572e-12
  18    -3.0775558476316e-12
 Sym= A
 Ene=               1
 Spin= Alpha
 Occup=    1.00000
   1    4.8163506443895e-12
   2    -3.8769211572549e-11
   3    2.667867098286e-11
   4    -8.7141500449161e-09
   5     -0.22305197681821
   6      0.58796366202276
   7    3.3061202125049e-08
   8      0.40686060158505
   9      -1.0724820825349
  10    5.7207397130977e-14
  11    7.6736849368098e-12
  12    -1.2258114132434e-11
  13    -1.3419292308004e-11
  14    9.8934899491308e-06
  15    -2.6079179613405e-05
  16    3.4637387539486e-11
  17    -2.5220255575053e-05
  18    6.6480441016951e-05
 Sym= A
 Ene=               2
 Spin= Alpha
 Occup=    1.00000
   1    3.4509394586158e-11
   2    -3.5098568687429e-10
   3    2.8252929746747e-10
   4    -1.3059855604826e-08
   5      0.64760566424644
   6      0.24567798982155
   7    4.9577699722001e-08
   8      -1.0653959533264
   9     -0.40417238156965
  10    8.5911634498925e-14
  11    1.1526475073834e-11
  12    -1.8410784100635e-11
  13    -2.0157289484321e-11
  14    -2.6157698633316e-05
  15    -9.9232772278219e-06
  16    5.2022777335736e-11
  17    6.6549991492565e-05
  18    2.5246640529321e-05
 Sym= A
 Ene=               3
 Spin= Alpha
 Occup=    1.00000
   1    1.6227496707021e-10
   2    -1.5669550970695e-09
   3    1.3830932266499e-09
   4    3.1061501774635e-09
   5     -0.34124885899509
   6      0.89952993653445
   7    -1.1528541313331e-08
   8    -0.025834516281224
   9     0.068099668805562
  10    -2.0088944797695e-14
  11    -2.5683921981997e-12
  12    4.1131326995281e-12
  13    4.4874715312826e-12
  14    7.7510395949124e-07
  15    -2.043168491359e-06
  16    -1.161947747771e-11
  17    -1.2451651821846e-06
  18    3.2822456419858e-06
 Sym= A
 Ene=               4
 Spin= Alpha
 Occup=    1.00000
   1     -0.15106074965827
   2       1.5058593738564
   3      -1.3751086812091
   4    -0.070257059384443
   5    7.7725413835866e-09
   6    4.0224552106545e-09
   7     0.018520520179579
   8    1.0551062941447e-09
   9    4.5156114761784e-10
  10    6.8285696724115e-08
  11    -0.00010083995073853
  12    0.00015114152846955
  13    0.00018027871457678
  14    -7.3160063097099e-15
  15    -5.8801107638695e-15
  16    -0.00043031955899651
  17    1.480947762566e-15
  18    6.2094959927543e-15
 Sym= A
 Ene=               5
 Spin= Alpha
 Occup=    1.00000
   1    -1.3798028014874e-09
   2    1.3998162940151e-08
   3    -1.2846077488083e-08
   4    -5.4285263811871e-09
   5     -0.85759097372629
   6     -0.32533873646586
   7    1.839248534018e-08
   8     -0.14066572036423
   9    -0.053363445634168
  10    3.2234400638676e-14
  11     3.28567013086e-12
  12    -5.3414648010115e-12
  13    -5.7088753241277e-12
  14    2.7009073096126e-07
  15    1.0246253161082e-07
  16    1.5062931305066e-11
  17    1.2332098995272e-06
  18    4.6783496275982e-07
 Sym= A
 Ene=               6
 Spin= Alpha
 Occup=    1.00000
   1      0.23434684604823
   2     -0.39579672592464
   3      -0.6851674060358
   4      0.10363717456407
   5    4.8209267922623e-11
   6    -3.3758621258508e-11
   7    -0.027321258043532
   8    4.4384952763694e-11
   9    2.3445159690943e-11
  10    -2.8657436832194e-07
  11    -4.2985519481199e-05
  12    6.8432709385982e-05
  13    7.8248129805463e-05
  14    7.922728511872e-16
  15    6.538296672491e-16
  16    -0.00020152678341182
  17    -2.1692739105315e-15
  18    -1.6223001483668e-15
 Sym= A
 Ene=               7
 Spin= Alpha
 Occup=    1.00000
   1     -0.68485566963925
   2      -0.1121147465074
   3     0.019767817292554
   4      -0.7762264666455
   5    -2.5965958781729e-11
   6    -1.6590855181198e-11
   7      0.20463024701255
   8    8.0516265167943e-12
   9    3.9104833820901e-12
  10    3.3005849015299e-08
  11    8.2337465239469e-05
  12    -0.000122995838247
  13    -0.00013984985230943
  14    2.8539931350285e-16
  15    1.4330482000597e-16
  16    0.00033088279106811
  17    -6.7943697173068e-16
  18    -3.4644807051286e-16
 Sym= A
 Ene=               8
 Spin= Alpha
 Occup=    1.00000
   1      -0.7211996402104
   2     0.076118104273588
   3    -0.013060394365489
   4      0.78550129593289
   5     5.76704495833e-12
   6    2.7738577154705e-12
   7     -0.20707527387462
   8    8.2392833987854e-13
   9    2.3816294234619e-13
  10    -2.475689988119e-08
  11    -8.0489452991222e-05
  12    0.00012031362670564
  13    0.00013632675578701
  14    -9.0888623426963e-18
  15    3.2568028657166e-18
  16    -0.00032300790261852
  17    6.5498347930128e-18
  18    -3.3025633034663e-18
 Sym= A
 Ene=               9
 Spin= Alpha
 Occup=    1.00000
   1    -1.9250950678556e-06
   2    -0.0002578895060284
   3    0.00041196579947795
   4    -0.00045097557651854
   5    1.9756220343793e-13
   6    -4.210668262142e-13
   7    0.0011640789847387
   8    -5.0933430417985e-13
   9    1.0836271243051e-12
  10    -6.4965134710677e-10
  11    5.1293792976139e-07
  12    -7.5865939558465e-07
  13     -0.29299004735769
  14    -2.1271138507422e-09
  15    5.0209074660116e-09
  16       1.1114046030138
  17    8.5472522456388e-09
  18    -1.8115291376886e-08
 Sym= A
 Ene=              10
 Spin= Alpha
 Occup=    0.00000
   1    -1.9515813878474e-14
   2    -2.6149911988096e-12
   3    4.1772629762491e-12
   4    -4.5729024201288e-12
   5    -2.7369046448858e-05
   6    5.3795959509482e-06
   7    1.1803547969927e-11
   8    6.9768539640374e-05
   9    -1.3713541466931e-05
  10    -1.4138358696576e-12
  11    9.7043944796259e-12
  12    -5.0220069861223e-12
  13    -2.9699768361588e-09
  14      0.61704415812567
  15     -0.12128476008262
  16    1.1267649605306e-08
  17      -1.1255266557738
  18      0.22123089509388
 Sym= A
 Ene=              11
 Spin= Alpha
 Occup=    0.00000
   1    -2.5923409748056e-14
   2    -3.4517496705266e-12
   3    5.5158950786921e-12
   4    -6.035356706737e-12
   5    5.3957927956772e-06
   6    2.7451448934149e-05
   7    1.5585420007659e-11
   8    -1.3727888285723e-05
   9    -6.9841529992039e-05
  10    2.7959557502408e-11
  11    -2.8455128031685e-10
  12    2.7022699376516e-10
  13    -3.9575329142549e-09
  14     -0.13358766846608
  15     -0.67963599589812
  16    1.4963862376858e-08
  17      0.21976917353841
  18       1.1180900531113
 Sym= A
 Ene=              12
 Spin= Alpha
 Occup=    0.00000
   1    6.6650339592113e-15
   2    8.6651129957381e-13
   3    -1.3865986500566e-12
   4    1.5144083421271e-12
   5    -2.1442222009552e-06
   6    4.2146336939339e-07
   7    -3.9175017475402e-12
   8    3.4445826366096e-06
   9    -6.7705927771789e-07
  10    -3.9309263630156e-11
  11    3.6779274987895e-10
  12    -3.1482214233319e-10
  13    1.0281804044505e-09
  14      0.94402034337185
  15     -0.18555443380212
  16    -3.8397338434178e-09
  17     0.071467880528093
  18    -0.014047556897643
 Sym= A
 Ene=              13
 Spin= Alpha
 Occup=    0.00000
   1    6.8285702487314e-08
   2    -0.0001008399423692
   3    0.00015114151592331
   4    -0.00018027870032764
   5    1.4631325238864e-15
   6    4.5139569331769e-15
   7    0.00043031952510293
   8    -4.4448944678089e-15
   9    -1.5876917395417e-14
  10     -0.15106075682881
  11       1.5058593683768
  12      -1.3751086728779
  13      0.07025713650965
  14    1.1914319527994e-10
  15    1.8153546702009e-09
  16    -0.018520540511472
  17    9.2468420221403e-11
  18    5.2819679069496e-10
 Sym= A
 Ene=              14
 Spin= Alpha
 Occup=    0.00000
   1    -1.0264075236305e-14
   2    -1.1434444071737e-12
   3    1.8475494133932e-12
   4    -1.9915550402175e-12
   5    -5.5714179608289e-08
   6    -2.8344972151463e-07
   7    5.2144818400804e-12
   8    -2.5438560387872e-07
   9    -1.294202987049e-06
  10    3.404586017894e-10
  11    -3.2223590049723e-09
  12    2.8304010596445e-09
  13    -1.6973316650965e-09
  14      0.17690329495439
  15      0.90000711933655
  16    5.8673182184971e-09
  17     0.029016429157852
  18       0.1476229790318
 Sym= A
 Ene=              15
 Spin= Alpha
 Occup=    0.00000
   1    -2.865743725501e-07
   2    -4.2985529564446e-05
   3    6.8432724439984e-05
   4    -7.8248147086428e-05
   5    -6.8187098920732e-17
   6    3.5073708323086e-16
   7    0.00020152682425583
   8    1.4854230057786e-16
   9    -6.3532683007157e-16
  10       0.2343471600434
  11     -0.39579669304139
  12      -0.6851674227441
  13     -0.10363725503987
  14    7.6566878512429e-13
  15    -1.0736932620605e-10
  16     0.027321279258726
  17    -3.6340320719188e-12
  18    -4.3641853325196e-12
 Sym= A
 Ene=              16
 Spin= Alpha
 Occup=    0.00000
   1    -3.3005659992676e-08
   2    -8.2337116181352e-05
   3    0.00012299531533922
   4    -0.00013984926009036
   5    -8.6218843168107e-17
   6    -8.8373872168858e-17
   7    0.00033088138355361
   8    -5.6538322381086e-17
   9    7.7208163104736e-17
  10       0.6848586646266
  11      0.11211461365298
  12    -0.019767644085224
  13     -0.77622309190649
  14    -1.8467043347314e-12
  15    2.6334366041288e-12
  16      0.20462935735775
  17    -6.2286745567552e-14
  18    -1.8445567931187e-12
 Sym= A
 Ene=              17
 Spin= Alpha
 Occup=    0.00000
   1    -2.4757086704779e-08
   2    -8.0489815159958e-05
   3    0.00012031416846409
   4    -0.00013632737222871
   5    -9.221940385993e-17
   6    9.5917998709667e-17
   7    0.00032300936410407
   8    5.4135760936432e-17
   9    -6.5565403206958e-17
  10     -0.72119669262519
  11     0.076118579341569
  12    -0.013060657166588
  13     -0.78550461327458
  14    -7.9183797064427e-13
  15    -3.7557704562859e-12
  16      0.20707614839844
  17    -7.9159530536517e-14
  18    -4.3759234043899e-13
