 &FCI NORB=  18,NELEC=20,MS2=0,
  ORBSYM=1,1,1,1,1,1,1,1,1,1,1,1,1,1,1,1,1,1,
  ISYM=1,
 &END
 6.23458767409468    1    1    1    1
 -0.2721406808387721    1    1    2    1
 1.727162059326336    1    1    2    2
 0.2990951302805566    1    1    3    1
 0.144992540671357    1    1    3    2
 0.7299909998096481    1    1    3    3
 -5.6665770000194e-08    1    1    4    1
 2.302620898974756e-07    1    1    4    2
 -2.971628858937031e-07    1    1    4    3
 1.980487289476258    1    1    4    4
 1.980486738015082    1    1    5    5
 -1.797725538031095e-15    1    1    6    5
 1.980486738015085    1    1    6    6
 1.22040029641251e-07    1    1    7    1
 -2.537001190342991e-07    1    1    7    2
 3.381138913387651e-07    1    1    7    3
 -0.04911781428593807    1    1    7    4
 0.6475415764279741    1    1    7    7
 -0.04911698938311029    1    1    8    5
 1.107254298531582e-15    1    1    8    6
 0.6475405128656394    1    1    8    8
 1.619613159412379e-15    1    1    9    5
 -0.049116989383112    1    1    9    6
 0.6475405128656405    1    1    9    9
 -6.926841568785859e-08    1    1   10    1
 3.661555988664479e-07    1    1   10    2
 2.396465761038001e-07    1    1   10    3
 5.162037686856488e-07    1    1   10    4
 9.720477375332272e-07    1    1   10    7
 0.1549924167310302    1    1   10   10
 1.520059328779436e-05    1    1   11    1
 -1.672723716552009e-05    1    1   11    2
 1.981799810063997e-05    1    1   11    3
 -8.116115501772845e-05    1    1   11    4
 7.814868589073732e-05    1    1   11    7
 3.147557299653978e-10    1    1   11   10
 0.1549924334995802    1    1   11   11
 -2.299954467692481e-05    1    1   12    1
 1.746538449312339e-05    1    1   12    2
 -2.766231646423907e-05    1    1   12    3
 0.0001081114342338585    1    1   12    4
 -0.0001136728031494208    1    1   12    7
 -4.269587704299229e-10    1    1   12   10
 -2.404499360471468e-08    1    1   12   11
 0.154992450385618    1    1   12   12
 -2.637245535438336e-05    1    1   13    1
 2.132133860291501e-05    1    1   13    2
 -2.797847322563271e-05    1    1   13    3
 0.0001242917677047394    1    1   13    4
 -0.0001140990545801032    1    1   13    7
 -0.0004549903940379894    1    1   13   10
 -0.008819513950899006    1    1   13   11
 -0.0009848975962448983    1    1   13   12
 0.155782398891809    1    1   13   13
 -7.211387162864735e-06    1    1   14    5
 6.897663876350394e-06    1    1   14    8
 0.1545974365224974    1    1   14   14
 -7.211387162289656e-06    1    1   15    6
 6.897663876271783e-06    1    1   15    9
 0.1545974365224974    1    1   15   15
 6.487459129424008e-05    1    1   16    1
 -1.246729196399703e-05    1    1   16    2
 4.037463586431761e-05    1    1   16    3
 -0.0002299396868092368    1    1   16    4
 0.0002066070025184266    1    1   16    7
 0.0009859262254618929    1    1   16   10
 0.005400356562990111    1    1   16   11
 -0.02171245161885126    1    1   16   12
 -0.0005776316233800163    1    1   16   13
 0.1597080229695333    1    1   16   16
 1.330494462800546e-05    1    1   17    5
 -1.270991356386459e-05    1    1   17    8
 0.0002888093547580017    1    1   17   14
 0.1526345753819373    1    1   17   17
 1.330494462719709e-05    1    1   18    6
 -1.270991356353265e-05    1    1   18    9
 0.0002888093547579185    1    1   18   15
 0.1526345753819374    1    1   18   18
 -0.2721406808387724    2    1    1    1
 0.04124293347221752    2    1    2    1
 0.01416780076342994    2    1    2    2
 -0.01366773420483816    2    1    3    1
 0.002926494161606992    2    1    3    2
 -0.001128990803647871    2    1    3    3
 1.883093810284531e-08    2    1    4    1
 1.791081813608121e-08    2    1    4    2
 6.783015256651986e-10    2    1    4    3
 0.01664810769475623    2    1    4    4
 0.01664810100229683    2    1    5    5
 0.01664810100229685    2    1    6    6
 -1.287718810419443e-08    2    1    7    1
 -1.982415597921337e-09    2    1    7    2
 2.983247918702933e-09    2    1    7    3
 -0.001182413350804623    2    1    7    4
 -0.0002625058143000326    2    1    7    7
 -0.001182405984074797    2    1    8    5
 -0.0002625055476004991    2    1    8    8
 -0.001182405984074808    2    1    9    6
 -0.000262505547600498    2    1    9    9
 1.09379274488387e-08    2    1   10    1
 4.034929332754772e-09    2    1   10    2
 6.803648585722042e-10    2    1   10    3
 4.832812048870687e-09    2    1   10    4
 -9.629676431575625e-10    2    1   10    7
 3.14755975000719e-10    2    1   10   10
 -1.237939732141371e-06    2    1   11    1
 -1.481265631763015e-07    2    1   11    2
 -1.034775152261478e-07    2    1   11    3
 -9.702889968668996e-07    2    1   11    4
 -6.816626243715361e-09    2    1   11    7
 -9.51348577303865e-13    2    1   11   10
 3.559736922036416e-10    2    1   11   11
 1.760905709156176e-06    2    1   12    1
 1.616302487779373e-07    2    1   12    2
 1.487215559432731e-07    2    1   12    3
 1.373271050157665e-06    2    1   12    4
 2.397664651854863e-08    2    1   12    7
 3.991884174600278e-13    2    1   12   10
 -4.084951233444387e-11    2    1   12   11
 3.672631851509833e-10    2    1   12   12
 2.106935779724861e-06    2    1   13    1
 2.32426256116452e-07    2    1   13    2
 1.780189935037611e-07    2    1   13    3
 1.602646591705003e-06    2    1   13    4
 1.819359096342845e-08    2    1   13    7
 1.519275924784452e-12    2    1   13   10
 -6.68820409974762e-11    2    1   13   11
 7.358595240364822e-11    2    1   13   12
 4.170007437747859e-10    2    1   13   13
 -9.194808023804352e-08    2    1   14    5
 -1.062312994715719e-09    2    1   14    8
 3.179364196836373e-10    2    1   14   14
 -9.194808023336575e-08    2    1   15    6
 -1.06231299501275e-09    2    1   15    9
 3.179364196835874e-10    2    1   15   15
 -4.715520730479983e-06    2    1   16    1
 -3.226827427244757e-07    2    1   16    2
 -4.022328187854547e-07    2    1   16    3
 -3.517345102563159e-06    2    1   16    4
 -9.164150489106031e-08    2    1   16    7
 -1.120056747677335e-12    2    1   16   10
 1.15780999252636e-10    2    1   16   11
 -1.54724998600967e-10    2    1   16   12
 -1.666529623494729e-10    2    1   16   13
 6.013289346902587e-10    2    1   16   16
 2.015240243292778e-07    2    1   17    5
 5.330246102214159e-09    2    1   17    8
 5.245721761476092e-12    2    1   17   14
 2.947473466993397e-10    2    1   17   17
 2.015240243225769e-07    2    1   18    6
 5.330246102559332e-09    2    1   18    9
 5.245721761564717e-12    2    1   18   15
 2.947473466991923e-10    2    1   18   18
 1.727162059326333    2    2    1    1
 0.01416780076343037    2    2    2    1
 1.315726315169408    2    2    2    2
 0.04970053001417173    2    2    3    1
 0.1341491433729993    2    2    3    2
 0.6972965710556519    2    2    3    3
 1.233374671765301e-08    2    2    4    1
 1.668923402636931e-07    2    2    4    2
 -1.577987304563968e-07    2    2    4    3
 1.376899076643178    2    2    4    4
 1.376898817719319    2    2    5    5
 -1.190536726522995e-15    2    2    6    5
 1.37689881771932    2    2    6    6
 3.154020093758981e-09    2    2    7    1
 -1.878298233448849e-07    2    2    7    2
 3.224232668770271e-07    2    2    7    3
 0.02602322731250515    2    2    7    4
 0.6224554283157133    2    2    7    7
 0.02602369776603137    2    2    8    5
 0.6224545067213023    2    2    8    8
 1.179048188397055e-15    2    2    9    5
 0.02602369776603024    2    2    9    6
 0.6224545067213033    2    2    9    9
 -4.264901918182554e-10    2    2   10    1
 2.494434296690815e-07    2    2   10    2
 2.319764554702942e-07    2    2   10    3
 4.003371682452592e-07    2    2   10    4
 9.581343521979885e-07    2    2   10    7
 0.1549924334995793    2    2   10   10
 8.461162940129967e-07    2    2   11    1
 -9.947790857361958e-06    2    2   11    2
 1.844806783266788e-05    2    2   11    3
 -3.886220224570114e-05    2    2   11    4
 6.943619820408751e-05    2    2   11    7
 3.559734581642327e-10    2    2   11   10
 0.1549924424231418    2    2   11   11
 -1.571376419699419e-06    2    2   12    1
 8.792219918079779e-06    2    2   12    2
 -2.5458911054405e-05    2    2   12    3
 4.685909327117693e-05    2    2   12    4
 -0.0001005124630498369    2    2   12    7
 -6.16421953425822e-11    2    2   12   10
 -1.677323419185058e-08    2    2   12   11
 0.1549924499868257    2    2   12   12
 -1.508090371356226e-06    2    2   13    1
 1.02132773007709e-05    2    2   13    2
 -2.549282327425171e-05    2    2   13    3
 5.36908142802707e-05    2    2   13    4
 -9.929080401548325e-05    2    2   13    7
 -0.0004549904556606243    2    2   13   10
 -0.008819506716696375    2    2   13   11
 -0.0009849077781990765    2    2   13   12
 0.155782401726678    2    2   13   13
 -3.163451610478064e-06    2    2   14    5
 6.048123329275334e-06    2    2   14    8
 0.1545974496824278    2    2   14   14
 -3.163451610075855e-06    2    2   15    6
 6.048123329219835e-06    2    2   15    9
 0.1545974496824278    2    2   15   15
 5.175119858025296e-06    2    2   16    1
 8.512463471593068e-06    2    2   16    2
 3.387033965482105e-05    2    2   16    3
 -6.985561106133936e-05    2    2   16    4
 0.0001710801924422306    2    2   16    7
 0.0009859261320116039    2    2   16   10
 0.005400339788609066    2    2   16   11
 -0.0217124246918568    2    2   16   12
 -0.000577604089212938    2    2   16   13
 0.1597079665038792    2    2   16   16
 4.142045793169298e-06    2    2   17    5
 -1.067404348696358e-05    2    2   17    8
 0.0002888100185207479    2    2   17   14
 0.1526345823247663    2    2   17   17
 4.14204579261603e-06    2    2   18    6
 -1.067404348666932e-05    2    2   18    9
 0.0002888100185206785    2    2   18   15
 0.1526345823247664    2    2   18   18
 0.2990951302805566    3    1    1    1
 -0.01366773420483824    3    1    2    1
 0.04970053001417177    3    1    2    2
 0.01657107031252405    3    1    3    1
 0.004129209521988361    3    1    3    2
 0.003871847128714645    3    1    3    3
 -2.377422123302232e-08    3    1    4    1
 -1.160385070281027e-08    3    1    4    2
 -1.690547863026339e-08    3    1    4    3
 0.06414185494315484    3    1    4    4
 0.06414182773275756    3    1    5    5
 0.06414182773275764    3    1    6    6
 1.129869674329798e-08    3    1    7    1
 -5.695095796245452e-09    3    1    7    2
 -2.221369314419452e-09    3    1    7    3
 -0.005417884809972199    3    1    7    4
 0.002692157567006602    3    1    7    7
 -0.00541785201888212    3    1    8    5
 0.002692144564571147    3    1    8    8
 -0.00541785201888217    3    1    9    6
 0.002692144564571158    3    1    9    9
 -3.129625791105549e-09    3    1   10    1
 1.453813372235045e-08    3    1   10    2
 1.842024506408654e-09    3    1   10    3
 1.703104486206141e-08    3    1   10    4
 2.629927274621327e-09    3    1   10    7
 -4.269591314489754e-10    3    1   10   10
 8.533032784114742e-07    3    1   11    1
 -6.815399427581179e-07    3    1   11    2
 1.249701874802741e-07    3    1   11    3
 -3.928708201178271e-06    3    1   11    4
 8.23192070383903e-07    3    1   11    7
 3.991813932562152e-13    3    1   11   10
 -6.164253305347264e-11    3    1   11   11
 -1.29200192326648e-06    3    1   12    1
 8.314627612532923e-07    3    1   12    2
 -2.15563133912123e-07    3    1   12    3
 5.597505827178531e-06    3    1   12    4
 -1.262880010525039e-06    3    1   12    7
 3.894533454321856e-13    3    1   12   10
 -5.598237608249954e-10    3    1   12   11
 4.0558285137222e-10    3    1   12   12
 -1.484937757858847e-06    3    1   13    1
 1.094048289347072e-06    3    1   13    2
 -2.36720453689691e-07    3    1   13    3
 6.509215477723624e-06    3    1   13    4
 -1.409790850220761e-06    3    1   13    7
 -1.097299171645527e-12    3    1   13   10
 -6.227446612092153e-10    3    1   13   11
 9.278639017272804e-10    3    1   13   12
 6.17207654970737e-10    3    1   13   13
 -3.733562764648814e-07    3    1   14    5
 8.081605113517182e-08    3    1   14    8
 -4.273599611724993e-10    3    1   14   14
 -3.733562764467715e-07    3    1   15    6
 8.081605113341575e-08    3    1   15    9
 -4.273599611727201e-10    3    1   15   15
 3.638246949288713e-06    3    1   16    1
 -1.902192371457024e-06    3    1   16    2
 6.706993371389573e-07    3    1   16    3
 -1.442410473949856e-05    3    1   16    4
 3.452946422844702e-06    3    1   16    7
 1.65390883750193e-13    3    1   16   10
 1.460636796970411e-09    3    1   16   11
 -2.179745480341605e-09    3    1   16   12
 -2.486989517117919e-09    3    1   16   13
 5.464159734765704e-09    3    1   16   16
 8.260863662359703e-07    3    1   17    5
 -1.976457545491701e-07    3    1   17    8
 -1.686257122054429e-11    3    1   17   14
 -3.732977096323314e-10    3    1   17   17
 8.260863662098281e-07    3    1   18    6
 -1.976457545461203e-07    3    1   18    9
 -1.686257122012712e-11    3    1   18   15
 -3.732977096331014e-10    3    1   18   18
 0.1449925406713587    3    2    1    1
 0.002926494161606895    3    2    2    1
 0.1341491433729997    3    2    2    2
 0.004129209521988246    3    2    3    1
 0.02541345091267179    3    2    3    2
 0.03870847491681277    3    2    3    3
 -1.222946341018911e-08    3    2    4    1
 -4.803352984220275e-08    3    2    4    2
 -3.382815591047321e-08    3    2    4    3
 0.1402422061515158    3    2    4    4
 0.1402421741580001    3    2    5    5
 0.1402421741580003    3    2    6    6
 5.742040994369711e-09    3    2    7    1
 -9.413291595754343e-09    3    2    7    2
 -2.764938387717505e-08    3    2    7    3
 0.008388767200669191    3    2    7    4
 0.02570006768823298    3    2    7    7
 0.008388816574745285    3    2    8    5
 0.02569997113284066    3    2    8    8
 0.008388816574745198    3    2    9    6
 0.02569997113284069    3    2    9    9
 1.090198853763597e-10    3    2   10    1
 4.251959768002731e-08    3    2   10    2
 1.552846642809715e-08    3    2   10    3
 7.46123585637964e-08    3    2   10    4
 4.942211395843526e-08    3    2   10    7
 -2.404499324797942e-08    3    2   10   10
 8.562489795829064e-09    3    2   11    1
 -1.052841481505102e-06    3    2   11    2
 1.722698478842413e-06    3    2   11    3
 -4.118627438335769e-06    3    2   11    4
 5.256616294975019e-06    3    2   11    7
 -4.084951857702207e-11    3    2   11   10
 -1.677323381966475e-08    3    2   11   11
 -3.859811534377229e-08    3    2   12    1
 1.00505740309918e-06    3    2   12    2
 -2.794554686239238e-06    3    2   12    3
 5.036399741410674e-06    3    2   12    4
 -8.525828532160027e-06    3    2   12    7
 -5.5982376592947e-10    3    2   12   10
 -4.643245323136785e-09    3    2   12   11
 -7.430069996455606e-09    3    2   12   12
 -1.151178794882505e-08    3    2   13    1
 1.514964031567002e-06    3    2   13    2
 -3.173035282505203e-06    3    2   13    3
 6.3824816708485e-06    3    2   13    4
 -9.208101771558382e-06    3    2   13    7
 1.882107861821706e-11    3    2   13   10
 -4.168358818141689e-09    3    2   13   11
 4.611834951740048e-09    3    2   13   12
 -1.541224025534505e-08    3    2   13   13
 -3.677440787306199e-07    3    2   14    5
 5.297076541978924e-07    3    2   14    8
 -1.881900603378001e-08    3    2   14   14
 -3.677440786930764e-07    3    2   15    6
 5.297076541975827e-07    3    2   15    9
 -1.881900603378031e-08    3    2   15   15
 1.488599833648141e-07    3    2   16    1
 -1.461256187512702e-06    3    2   16    2
 8.306335342981627e-06    3    2   16    3
 -1.106689563149413e-05    3    2   16    4
 2.412768281811387e-05    3    2   16    7
 2.699376593364395e-10    3    2   16   10
 8.982793042438733e-09    3    2   16   11
 -1.813279633069713e-08    3    2   16   12
 -1.383742338050949e-08    3    2   16   13
 2.453027560082535e-08    3    2   16   16
 6.394579016996792e-07    3    2   17    5
 -1.388474979261695e-06    3    2   17    8
 -9.382244098680586e-10    3    2   17   14
 -9.709405890679433e-09    3    2   17   17
 6.394579016501498e-07    3    2   18    6
 -1.388474979255159e-06    3    2   18    9
 -9.382244098674076e-10    3    2   18   15
 -9.709405890680953e-09    3    2   18   18
 0.7299909998096464    3    3    1    1
 -0.001128990803647704    3    3    2    1
 0.6972965710556509    3    3    2    2
 0.003871847128714774    3    3    3    1
 0.03870847491681272    3    3    3    2
 0.5990478088650385    3    3    3    3
 1.843200517711898e-09    3    3    4    1
 1.110007346110749e-07    3    3    4    2
 -3.902477202844445e-08    3    3    4    3
 0.7063907984214106    3    3    4    4
 0.7063907423625569    3    3    5    5
 0.7063907423625579    3    3    6    6
 -9.678608233317956e-09    3    3    7    1
 -1.248090859775717e-07    3    3    7    2
 3.538601250039417e-07    3    3    7    3
 0.0253740714825612    3    3    7    4
 0.5587884951784866    3    3    7    7
 0.02537427955798681    3    3    8    5
 0.5587878107117391    3    3    8    8
 0.02537427955798606    3    3    9    6
 0.55878781071174    3    3    9    9
 -4.065956542442178e-09    3    3   10    1
 5.952161578510996e-08    3    3   10    2
 1.841312139722466e-07    3    3   10    3
 1.166922780668947e-07    3    3   10    4
 8.432799415327361e-07    3    3   10    7
 0.1549924503856178    3    3   10   10
 -3.078058294484523e-07    3    3   11    1
 -3.806006047496436e-06    3    3   11    2
 1.467977948163374e-05    3    3   11    3
 -1.04434522016122e-05    3    3   11    4
 5.551932254221521e-05    3    3   11    7
 3.672629946652792e-10    3    3   11   10
 0.1549924499868259    3    3   11   11
 3.808959993312985e-07    3    3   12    1
 2.126356132040427e-06    3    3   12    2
 -1.914808051961064e-05    3    3   12    3
 8.71728342713319e-06    3    3   12    4
 -7.815850798152851e-05    3    3   12    7
 4.055831914653392e-10    3    3   12   10
 -7.43007020811345e-09    3    3   12   11
 0.1549924447899884    3    3   12   12
 5.445781822280339e-07    3    3   13    1
 8.541164682737682e-07    3    3   13    2
 -1.842825216839891e-05    3    3   13    3
 7.847728474452528e-06    3    3   13    4
 -7.499044111137379e-05    3    3   13    7
 -0.0004549903408254378    3    3   13   10
 -0.008819495739857502    3    3   13   11
 -0.0009849205081202685    3    3   13   12
 0.1557824012741224    3    3   13   13
 -5.2963054638069e-07    3    3   14    5
 4.65243188650108e-06    3    3   14    8
 0.1545974624971658    3    3   14   14
 -5.2963054616198e-07    3    3   15    6
 4.652431886451858e-06    3    3   15    9
 0.1545974624971659    3    3   15   15
 -7.159565054902745e-07    3    3   16    1
 2.133469629342359e-05    3    3   16    2
 1.464610666871295e-05    3    3   16    3
 2.305449078864819e-05    3    3   16    4
 0.0001081006485802341    3    3   16    7
 0.0009859256726089728    3    3   16   10
 0.005400316941130223    3    3   16   11
 -0.02171238334651046    3    3   16   12
 -0.0005775673246954313    3    3   16   13
 0.1597078789577348    3    3   16   16
 -1.193713983143804e-06    3    3   17    5
 -7.058126413955495e-06    3    3   17    8
 0.0002888109456326976    3    3   17   14
 0.1526345874817141    3    3   17   17
 -1.19371398344539e-06    3    3   18    6
 -7.058126413684999e-06    3    3   18    9
 0.0002888109456325866    3    3   18   15
 0.1526345874817142    3    3   18   18
 -5.666577000019406e-08    4    1    1    1
 1.883093810284534e-08    4    1    2    1
 1.233374671765295e-08    4    1    2    2
 -2.377422123302234e-08    4    1    3    1
 -1.222946341018906e-08    4    1    3    2
 1.843200517711838e-09    4    1    3    3
 0.08048452162448876    4    1    4    1
 0.0687889720624095    4    1    4    2
 0.0111379589211141    4    1    4    3
 -1.076810535855857e-09    4    1    4    4
 -5.932744764948002e-09    4    1    5    5
 -5.932744764947986e-09    4    1    6    6
 -0.01594373146463682    4    1    7    1
 -0.00467379002353572    4    1    7    2
 0.003989325342112041    4    1    7    3
 -3.752461603393724e-09    4    1    7    4
 -1.715885817334483e-09    4    1    7    7
 7.965245425847504e-10    4    1    8    5
 5.129941274663513e-10    4    1    8    8
 7.965245425846861e-10    4    1    9    6
 5.12994127466488e-10    4    1    9    9
 4.564653425704997e-09    4    1   10    1
 2.006461854379125e-08    4    1   10    2
 1.139772444155343e-08    4    1   10    3
 1.972539512696996e-08    4    1   10    4
 -2.870004086415702e-09    4    1   10    7
 0.0004549903940378754    4    1   10   10
 -6.946331400095015e-06    4    1   11    1
 -3.913314130562801e-06    4    1   11    2
 2.823819156403232e-07    4    1   11    3
 -6.631154967325502e-07    4    1   11    4
 -5.416515651530012e-08    4    1   11    7
 -1.519277047894418e-12    4    1   11   10
 0.0004549904556605143    4    1   11   11
 1.027015795183598e-05    4    1   12    1
 5.507110586734827e-06    4    1   12    2
 -5.40652609700195e-07    4    1   12    3
 6.818668289346976e-07    4    1   12    4
 2.515517182465146e-07    4    1   12    7
 1.097300457007071e-12    4    1   12   10
 -1.882108026892322e-11    4    1   12   11
 0.0004549903408253251    4    1   12   12
 1.17054261635801e-05    4    1   13    1
 6.418333976151662e-06    4    1   13    2
 -4.855705097878748e-07    4    1   13    3
 9.713213431918796e-07    4    1   13    4
 2.656413442547016e-07    4    1   13    7
 -2.671299350163285e-06    4    1   13   10
 -5.178037873268133e-05    4    1   13   11
 -5.782676645749179e-06    4    1   13   12
 0.0004619472760416873    4    1   13   13
 1.001921734798161e-08    4    1   14    5
 -4.256697225482406e-08    4    1   14    8
 0.0004515119293817017    4    1   14   14
 1.00192173480626e-08    4    1   15    6
 -4.256697225482186e-08    4    1   15    9
 0.0004515119293817017    4    1   15   15
 -2.731495679099705e-05    4    1   16    1
 -1.389319077763084e-05    4    1   16    2
 1.433573784500398e-06    4    1   16    3
 -1.035602411720233e-06    4    1   16    4
 -1.614116889394752e-06    4    1   16    7
 5.788484951331755e-06    4    1   16   10
 3.170576717766878e-05    4    1   16   11
 -0.0001274757224741466    4    1   16   12
 -5.086197613805702e-06    4    1   16   13
 0.0004965168245375781    4    1   16   16
 -3.509105697132242e-08    4    1   17    5
 1.50193089889764e-07    4    1   17    8
 2.543469763109061e-06    4    1   17   14
 0.000434225571738479    4    1   17   17
 -3.509105697145234e-08    4    1   18    6
 1.501930898899616e-07    4    1   18    9
 2.543469763108871e-06    4    1   18   15
 0.000434225571738479    4    1   18   18
 2.302620898974754e-07    4    2    1    1
 1.791081813608119e-08    4    2    2    1
 1.668923402636935e-07    4    2    2    2
 -1.160385070281022e-08    4    2    3    1
 -4.803352984220336e-08    4    2    3    2
 1.110007346110755e-07    4    2    3    3
 0.06878897206240951    4    2    4    1
 0.289874106210365    4    2    4    2
 0.06369768991878154    4    2    4    3
 1.389138538846691e-07    4    2    4    4
 1.260806276096389e-07    4    2    5    5
 1.260806276096396e-07    4    2    6    6
 -0.02126048568833317    4    2    7    1
 -0.001716740555952474    4    2    7    2
 0.08758815725873811    4    2    7    3
 1.149095032190311e-08    4    2    7    4
 -4.282463465378369e-08    4    2    7    7
 -1.996375644295453e-09    4    2    8    5
 2.803040524633843e-08    4    2    8    8
 -1.996375644296857e-09    4    2    9    6
 2.803040524634111e-08    4    2    9    9
 -9.58903239188376e-09    4    2   10    1
 1.13097278426612e-07    4    2   10    2
 1.759780326566096e-07    4    2   10    3
 8.225853864634976e-08    4    2   10    4
 -3.220885563720138e-08    4    2   10    7
 0.00881951395089915    4    2   10   10
 -7.586143415764837e-06    4    2   11    1
 -1.178117714720572e-05    4    2   11    2
 1.423261556195618e-05    4    2   11    3
 -1.646836708725021e-07    4    2   11    4
 -2.464525977544791e-06    4    2   11    7
 6.688202940114635e-11    4    2   11   10
 0.008819506716696542    4    2   11   11
 1.142269429870114e-05    4    2   12    1
 1.543169844990336e-05    4    2   12    2
 -2.286059259357837e-05    4    2   12    3
 -1.579372539593162e-06    4    2   12    4
 6.635435668049658e-06    4    2   12    7
 6.227446801545896e-10    4    2   12   10
 4.16835879870644e-09    4    2   12   11
 0.008819495739857654    4    2   12   12
 1.288057588892487e-05    4    2   13    1
 1.82443043880097e-05    4    2   13    2
 -2.388024458242475e-05    4    2   13    3
 -1.376637099328341e-06    4    2   13    4
 7.474192921196176e-06    4    2   13    7
 -5.178037873269006e-05    4    2   13   10
 -0.001003702224645605    4    2   13   11
 -0.0001120951706460228    4    2   13   12
 0.008954356019454244    4    2   13   13
 1.950172213310663e-07    4    2   14    5
 -8.233916728487634e-07    4    2   14    8
 0.00875208161520548    4    2   14   14
 1.950172213326362e-07    4    2   15    6
 -8.233916728487207e-07    4    2   15    9
 0.008752081615205482    4    2   15   15
 -3.07760771498705e-05    4    2   16    1
 -3.395425802161082e-05    4    2   16    2
 5.95008378252158e-05    4    2   16    3
 1.213520145134546e-05    4    2   16    4
 -3.541385983722623e-05    4    2   16    7
 0.0001122033613452791    4    2   16   10
 0.0006145739388661181    4    2   16   11
 -0.002470963705677821    4    2   16   12
 -9.857920933134404e-05    4    2   16   13
 0.009624421391592405    4    2   16   16
 -6.832600202396904e-07    4    2   17    5
 2.904795190604272e-06    4    2   17    8
 4.930320499639974e-05    4    2   17   14
 0.008416994916959413    4    2   17   17
 -6.832600202422089e-07    4    2   18    6
 2.904795190608102e-06    4    2   18    9
 4.93032049963954e-05    4    2   18   15
 0.008416994916959415    4    2   18   18
 -2.971628858937033e-07    4    3    1    1
 6.7830152566529e-10    4    3    2    1
 -1.577987304563971e-07    4    3    2    2
 -1.690547863026345e-08    4    3    3    1
 -3.382815591047282e-08    4    3    3    2
 -3.902477202844474e-08    4    3    3    3
 0.01113795892111405    4    3    4    1
 0.06369768991878169    4    3    4    2
 0.0201151705430784    4    3    4    3
 -1.92662137867843e-07    4    3    4    4
 -1.775888961826404e-07    4    3    5    5
 -1.775888961826406e-07    4    3    6    6
 -0.005139910409991988    4    3    7    1
 0.003076340470078412    4    3    7    2
 0.02797136502428643    4    3    7    3
 -6.67291890181026e-10    4    3    7    4
 -3.367724345354101e-08    4    3    7    7
 -9.051503779656721e-10    4    3    8    5
 -6.322900807948797e-08    4    3    8    8
 -9.051503779657073e-10    4    3    9    6
 -6.322900807948779e-08    4    3    9    9
 -4.678319874677535e-09    4    3   10    1
 3.218656679069906e-08    4    3   10    2
 5.753751937902706e-08    4    3   10    3
 2.101053154186402e-08    4    3   10    4
 -1.510653721938006e-10    4    3   10    7
 0.0009848975962458916    4    3   10   10
 -1.603670083257592e-06    4    3   11    1
 -1.914609614534677e-06    4    3   11    2
 5.006118900389556e-06    4    3   11    3
 1.489337445373355e-07    4    3   11    4
 6.38809427574204e-07    4    3   11    7
 -7.358595342555154e-11    4    3   11   10
 0.000984907778200092    4    3   11   11
 2.453760456486896e-06    4    3   12    1
 2.323847835786228e-06    4    3   12    2
 -8.176742234430413e-06    4    3   12    3
 -5.927342099786698e-07    4    3   12    4
 -6.543612176145823e-07    4    3   12    7
 -9.278638990269693e-10    4    3   12   10
 -4.611834952290153e-09    4    3   12   11
 0.0009849205081212747    4    3   12   12
 2.743640041536131e-06    4    3   13    1
 2.885394516849122e-06    4    3   13    2
 -8.689793763786378e-06    4    3   13    3
 -5.561091690075436e-07    4    3   13    4
 -7.566444635807005e-07    4    3   13    7
 -5.782676645756142e-06    4    3   13   10
 -0.0001120951706461406    4    3   13   11
 -1.25161310172918e-05    4    3   13   12
 0.0009999655921963705    4    3   13   13
 2.26740271699406e-08    4    3   14    5
 -9.974185057420025e-08    4    3   14    8
 0.000977376306171045    4    3   14   14
 2.267402717011578e-08    4    3   15    6
 -9.974185057419517e-08    4    3   15    9
 0.000977376306171048    4    3   15   15
 -6.697175296556173e-06    4    3   16    1
 -4.713647696534065e-06    4    3   16    2
 2.270308234419229e-05    4    3   16    3
 2.94208784447009e-06    4    3   16    4
 -1.84460127923521e-07    4    3   16    7
 1.253107638479991e-05    4    3   16   10
 6.864118113560669e-05    4    3   16   11
 -0.0002759702311134028    4    3   16   12
 -1.101780624429815e-05    4    3   16   13
 0.001074835067040412    4    3   16   16
 -7.969846496871151e-08    4    3   17    5
 3.539394741991029e-07    4    3   17    8
 5.504396238973632e-06    4    3   17   14
 0.0009399710337500352    4    3   17   17
 -7.969846496899244e-08    4    3   18    6
 3.539394741995296e-07    4    3   18    9
 5.504396238971573e-06    4    3   18   15
 0.0009399710337500386    4    3   18   18
 1.980487289476261    4    4    1    1
 0.01664810769475562    4    4    2    1
 1.376899076643179    4    4    2    2
 0.06414185494315502    4    4    3    1
 0.1402422061515158    4    4    3    2
 0.7063907984214105    4    4    3    3
 -1.076810535855874e-09    4    4    4    1
 1.389138538846691e-07    4    4    4    2
 -1.926621378678431e-07    4    4    4    3
 1.573293329332371    4    4    4    4
 1.403184510662491    4    4    5    5
 -1.221576677314684e-15    4    4    6    5
 1.403184510662493    4    4    6    6
 1.203447624771866e-08    4    4    7    1
 -1.902675935045273e-07    4    4    7    2
 2.809188234537212e-07    4    4    7    3
 0.02315410982688165    4    4    7    4
 0.6501049276421843    4    4    7    7
 0.01808636234672372    4    4    8    5