 &FCI NORB=  18,NELEC=20,MS2=0,
  ORBSYM=1,1,1,1,1,1,1,1,1,1,1,1,1,1,1,1,1,1,
  ISYM=1,
 &END
 0.5797908722790134    1    1    1    1
 1.932326339119317e-10    1    1    2    1
 0.5047534680856883    1    1    2    2
 3.562585017001894e-10    1    1    3    1
 2.441009084789292e-10    1    1    3    2
 0.5080991474115493    1    1    3    3
 6.09062978144223e-10    1    1    4    1
 0.02089925208549468    1    1    4    2
 1.539240506774391e-09    1    1    4    3
 0.6173985121812233    1    1    4    4
 -0.001241125158966379    1    1    5    1
 -3.200004931945071e-11    1    1    5    2
 1.639279158818199e-10    1    1    5    3
 -3.254415152946407e-12    1    1    5    4
 0.572440625774707    1    1    5    5
 -7.892643256277892e-10    1    1    6    1
 1.937669207797346e-10    1    1    6    2
 -0.02832771368770936    1    1    6    3
 3.618833577783358e-10    1    1    6    4
 -3.269371480513682e-10    1    1    6    5
 0.6140528328553602    1    1    6    6
 0.001830846407176731    1    1    7    1
 7.690302029227819e-11    1    1    7    2
 1.377409687953626e-10    1    1    7    3
 1.085901829915195e-10    1    1    7    4
 -0.03683276749245617    1    1    7    5
 -4.441840166705112e-10    1    1    7    6
 0.6091549140261459    1    1    7    7
 -0.0137124246484456    1    1    8    1
 -5.701556643083981e-10    1    1    8    2
 -9.298141728575156e-10    1    1    8    3
 -5.358950629766963e-10    1    1    8    4
 0.002053044215936007    1    1    8    5
 7.825349322205189e-10    1    1    8    6
 -0.001948970141230283    1    1    8    7
 0.648424566163296    1    1    8    8
 0.01387626886456798    1    1    9    1
 5.769334429679515e-10    1    1    9    2
 9.414365928922653e-10    1    1    9    3
 5.40280751419142e-10    1    1    9    4
 -5.81048970514008e-05    1    1    9    5
 -7.734759792160417e-10    1    1    9    6
 0.0001825311343542607    1    1    9    7
 -0.001219732620869748    1    1    9    8
 0.6488703216002093    1    1    9    9
 7.046442008335098e-05    1    1   10    1
 2.084507889729583e-13    1    1   10    2
 3.906645661290685e-13    1    1   10    3
 -3.971470703437376e-14    1    1   10    4
 3.150827576536826e-05    1    1   10    5
 2.51804911747279e-13    1    1   10    6
 -3.548857388400898e-06    1    1   10    7
 -3.176223941814063e-05    1    1   10    8
 2.808809563978778e-05    1    1   10    9
 0.1652838732654363    1    1   10   10
 6.718252276703351e-13    1    1   11    1
 8.175362839542326e-07    1    1   11    2
 -1.167695310037087e-06    1    1   11    3
 -1.31204992581072e-06    1    1   11    4
 4.038315562393926e-13    1    1   11    5
 -2.19252516700043e-06    1    1   11    6
 5.22545237418832e-15    1    1   11    7
 -3.539587502505338e-13    1    1   11    8
 3.170150837888003e-13    1    1   11    9
 1.063494374309225e-10    1    1   11   10
 0.1569463319949885    1    1   11   11
 1.007468400582103e-12    1    1   12    1
 1.444563857135773e-06    1    1   12    2
 8.084030534420832e-07    1    1   12    3
 -2.097640175260693e-06    1    1   12    4
 2.694057078642104e-13    1    1   12    5
 1.363370238085404e-06    1    1   12    6
 -1.34487208454375e-13    1    1   12    7
 -3.588048502477118e-13    1    1   12    8
 3.08803755715445e-13    1    1   12    9
 6.703237019597023e-11    1    1   12   10
 -1.310366807870903e-12    1    1   12   11
 0.1570138343496002    1    1   12   12
 -1.58394131763705e-13    1    1   13    1
 1.228988635139368e-06    1    1   13    2
 -1.976092599577231e-06    1    1   13    3
 5.329718115832984e-08    1    1   13    4
 -1.132764713290589e-13    1    1   13    5
 -4.846443849340566e-08    1    1   13    6
 7.940579768402295e-15    1    1   13    7
 1.122274997894092e-13    1    1   13    8
 -9.974838991735463e-14    1    1   13    9
 -2.498471555877207e-11    1    1   13   10
 0.0004218289914760099    1    1   13   11
 -7.277435953552427e-12    1    1   13   12
 0.159214177992122    1    1   13   13
 8.139606007599449e-05    1    1   14    1
 1.665072986309418e-12    1    1   14    2
 2.524317339864918e-12    1    1   14    3
 -5.935789076524325e-13    1    1   14    4
 -9.599429838324594e-06    1    1   14    5
 8.10462862205197e-13    1    1   14    6
 -1.089365047566168e-05    1    1   14    7
 5.229619670230807e-06    1    1   14    8
 -5.937545239799185e-06    1    1   14    9
 0.01940549608266062    1    1   14   10
 2.375354315315959e-10    1    1   14   11
 1.709933686590213e-10    1    1   14   12
 -6.678662601833359e-11    1    1   14   13
 0.1588648944578303    1    1   14   14
 3.471798350304983e-13    1    1   15    1
 -1.88120765297855e-06    1    1   15    2
 -1.177668373042568e-06    1    1   15    3
 -2.284041007592978e-07    1    1   15    4
 1.694425330902757e-13    1    1   15    5
 6.243026487037735e-08    1    1   15    6
 -5.918595874777775e-15    1    1   15    7
 -1.700289564027032e-13    1    1   15    8
 1.520501368367313e-13    1    1   15    9
 -1.141374911374569e-11    1    1   15   10
 -3.259636553513793e-13    1    1   15   11
 -0.0005713738486094081    1    1   15   12
 -1.827331468533078e-12    1    1   15   13
 9.688338965955881e-11    1    1   15   14
 0.1591466756375102    1    1   15   15
 2.857110544746885e-05    1    1   16    1
 5.124106869614264e-13    1    1   16    2
 7.791257066466269e-13    1    1   16    3
 -1.770039648456502e-13    1    1   16    4
 -5.001874159291682e-07    1    1   16    5
 2.531314473867613e-13    1    1   16    6
 -3.477287298038541e-06    1    1   16    7
 -1.40561049287925e-06    1    1   16    8
 8.741122776924773e-07    1    1   16    9
 0.01486156435166542    1    1   16   10
 1.74858153572999e-10    1    1   16   11
 1.506884206238176e-10    1    1   16   12
 -7.278097242283768e-11    1    1   16   13
 0.00104052150139339    1    1   16   14
 2.489502204593329e-11    1    1   16   15
 0.1584723804929364    1    1   16   16
 5.135637411622522e-05    1    1   17    1
 9.570795560583336e-13    1    1   17    2
 1.452195970222089e-12    1    1   17    3
 -3.455397444984945e-13    1    1   17    4
 -3.383656483975587e-06    1    1   17    5
 4.799064874653177e-13    1    1   17    6
 -6.796294976671588e-06    1    1   17    7
 1.147247066525842e-06    1    1   17    8
 -1.719541319594711e-06    1    1   17    9
 0.00050977804673695    1    1   17   10
 9.020030896411422e-12    1    1   17   11
 -3.039627123396801e-12    1    1   17   12
 5.081645161641544e-12    1    1   17   13
 0.004504235501873247    1    1   17   14
 4.414793930459045e-12    1    1   17   15
 -0.004401827689376189    1    1   17   16
 0.1630816556072083    1    1   17   17
 4.760197538853296e-05    1    1   18    1
 8.614472825972448e-13    1    1   18    2
 1.308147874610914e-12    1    1   18    3
 -3.118216074062306e-13    1    1   18    4
 -2.464283847972323e-06    1    1   18    5
 4.349293851055342e-13    1    1   18    6
 -6.193824118289715e-06    1    1   18    7
 4.874914439136406e-07    1    1   18    8
 -1.065186693928228e-06    1    1   18    9
 0.0002373929702765565    1    1   18   10
 4.07422401239267e-12    1    1   18   11
 -1.296331682336904e-12    1    1   18   12
 1.200533330390668e-12    1    1   18   13
 0.004728744398682518    1    1   18   14
 -7.768108353331345e-12    1    1   18   15
 -0.004706188169197292    1    1   18   16
 0.001528636334940797    1    1   18   17
 0.1593470575179706    1    1   18   18
 1.932326339119328e-10    2    1    1    1
 0.03384781107721584    2    1    2    1
 5.998812963478127e-11    2    1    2    2
 -1.349199526073322e-10    2    1    3    1
 -6.408898222103813e-11    2    1    3    2
 1.41651524418934e-10    2    1    3    3
 -0.01166617537718511    2    1    4    1
 -2.899541268039326e-10    2    1    4    2
 -2.669411838535301e-10    2    1    4    3
 -4.669515592369388e-10    2    1    4    4
 -2.080836513546998e-11    2    1    5    1
 0.0002582873224788236    2    1    5    2
 9.322805881698247e-12    2    1    5    3
 0.0008535919669368285    2    1    5    4
 2.22978504264545e-10    2    1    5    5
 -1.278676330677967e-10    2    1    6    1
 1.397529798080774e-10    2    1    6    2
 1.586004072534715e-11    2    1    6    3
 6.560348898213768e-10    2    1    6    4
 1.081143274254062e-11    2    1    6    5
 3.166101470174885e-10    2    1    6    6
 1.162352395171972e-11    2    1    7    1
 -0.0003811254765897714    2    1    7    2
 -1.375165904366679e-11    2    1    7    3
 -0.001259098381915179    2    1    7    4
 -6.36075541739757e-11    2    1    7    5
 -1.594757207469144e-11    2    1    7    6
 3.949139850856112e-10    2    1    7    7
 -9.255482037206788e-11    2    1    8    1
 0.002854356515742328    2    1    8    2
 1.030016434174347e-10    2    1    8    3
 0.009430797450983817    2    1    8    4
 6.735205420708891e-12    2    1    8    5
 1.194489794715756e-10    2    1    8    6
 -8.235230177406532e-12    2    1    8    7
 4.648385686010687e-10    2    1    8    8
 9.372873278575197e-11    2    1    9    1
 -0.002888455449294591    2    1    9    2
 -1.042322270016325e-10    2    1    9    3
 -0.009543469375585275    2    1    9    4
 -9.286659918226385e-11    2    1    9    5
 -1.208760695529617e-10    2    1    9    6
 9.458221833006872e-11    2    1    9    7
 -7.404067142447845e-10    2    1    9    8
 4.630136171036399e-10    2    1    9    9
 -1.218892628855332e-12    2    1   10    1
 2.792461787057244e-05    2    1   10    2
 -1.089363683558084e-13    2    1   10    3
 -9.377603196636254e-06    2    1   10    4
 8.158013774547064e-13    2    1   10    5
 -1.025426801529006e-13    2    1   10    6
 4.835134098529734e-13    2    1   10    7
 -4.562079007771361e-13    2    1   10    8
 4.656791185750357e-13    2    1   10    9
 2.374711591270493e-10    2    1   10   10
 -1.056042913322248e-06    2    1   11    1
 1.994622720631657e-13    2    1   11    2
 1.303885512435387e-14    2    1   11    3
 -8.561985697307281e-14    2    1   11    4
 7.152362823075163e-07    2    1   11    5
 -1.620255870717311e-14    2    1   11    6
 4.446456091384646e-07    2    1   11    7
 -3.358248690085492e-07    2    1   11    8
 3.392540969512669e-07    2    1   11    9
 0.0002217838343664159    2    1   11   10
 2.049068263586678e-10    2    1   11   11
 -1.677965269732044e-06    2    1   12    1
 7.721911491617972e-14    2    1   12    2
 -2.113623082834743e-13    2    1   12    3
 -5.967045809617289e-14    2    1   12    4
 1.143869687166116e-06    2    1   12    5
 -5.178945605277345e-14    2    1   12    6
 7.106894506654317e-07    2    1   12    7
 -5.367906431775794e-07    2    1   12    8
 5.42217811387592e-07    2    1   12    9
 0.0003506778980906135    2    1   12   10
 5.719283868563058e-12    2    1   12   11
 1.982359117769123e-10    2    1   12   12
 1.381958127238745e-07    2    1   13    1
 -8.47453700182403e-14    2    1   13    2
 -3.216659761986468e-15    2    1   13    3
 2.98097754254815e-14    2    1   13    4
 -2.551545872913843e-08    2    1   13    5
 -1.978573201370811e-08    2    1   13    7
 1.464600314351598e-08    2    1   13    8
 -1.529293199448531e-08    2    1   13    9
 -4.479379747592026e-05    2    1   13   10
 9.203333839698635e-13    2    1   13   11
 -1.543422219072767e-12    2    1   13   12
 2.116803572306893e-10    2    1   13   13
 -1.272705864735588e-13    2    1   14    1
 1.126843130660098e-05    2    1   14    2
 -3.888641953775264e-14    2    1   14    3
 -3.327607000415164e-06    2    1   14    4
 1.756307334135764e-13    2    1   14    5
 -3.564575236895908e-14    2    1   14    6
 1.051016876160695e-13    2    1   14    7
 -9.095537874547001e-14    2    1   14    8
 9.467027198797997e-14    2    1   14    9
 5.928653127301226e-11    2    1   14   10
 0.0004464274858921011    2    1   14   11
 0.0007160279825433936    2    1   14   12
 2.992324866355499e-06    2    1   14   13
 2.110131981494792e-10    2    1   14   14
 -3.366174022114791e-07    2    1   15    1
 9.941618115965693e-14    2    1   15    2
 -2.341953198554965e-14    2    1   15    3
 -3.649718162413445e-14    2    1   15    4
 1.188370556402314e-07    2    1   15    5
 -6.335453232234772e-15    2    1   15    6
 8.016806222616589e-08    2    1   15    7
 -6.007119502522879e-08    2    1   15    8
 6.148198052334268e-08    2    1   15    9
 9.597765065523547e-05    2    1   15   10
 1.055584199070089e-12    2    1   15   11
 -3.583859835594446e-12    2    1   15   12
 -4.550221105332207e-13    2    1   15   13
 4.384497312566181e-05    2    1   15   14
 2.095144360333664e-10    2    1   15   15
 -1.375092430614035e-13    2    1   16    1
 5.043761373695705e-06    2    1   16    2
 -1.903364824136541e-14    2    1   16    3
 -1.636340394950941e-06    2    1   16    4
 1.103739686627451e-13    2    1   16    5
 -1.779824101120472e-14    2    1   16    6
 6.73062579977994e-14    2    1   16    7
 -6.18172578713266e-14    2    1   16    8
 6.370410580717532e-14    2    1   16    9
 4.551813785690245e-11    2    1   16   10
 0.0002640023425444696    2    1   16   11
 0.0003973654944776557    2    1   16   12
 -0.000237491555174146    2    1   16   13
 4.923930164211889e-12    2    1   16   14
 0.000409506200232281    2    1   16   15
 2.090000836423975e-10    2    1   16   16
 -1.396696724305299e-13    2    1   17    1
 8.544017797068894e-06    2    1   17    2
 -2.956496674274148e-14    2    1   17    3
 -2.529988506161585e-06    2    1   17    4
 1.598147191307002e-13    2    1   17    5
 -2.711582921751228e-14    2    1   17    6
 9.246222411970915e-14    2    1   17    7
 -8.151184293220061e-14    2    1   17    8
 8.40066922866563e-14    2    1   17    9
 2.757378765815069e-12    2    1   17   10
 4.159401317513031e-05    2    1   17   11
 7.342657584671509e-05    2    1   17   12
 6.189534800957994e-05    2    1   17   13
 1.673262498544983e-11    2    1   17   14
 -9.469711983903022e-05    2    1   17   15
 -1.647230514388261e-11    2    1   17   16
 2.279873947093407e-10    2    1   17   17
 -1.51484822161495e-13    2    1   18    1
 8.302484252518652e-06    2    1   18    2
 -2.885970625710452e-14    2    1   18    3
 -2.470151891555083e-06    2    1   18    4
 1.616701748346737e-13    2    1   18    5
 -2.649625477749746e-14    2    1   18    6
 9.351337172600042e-14    2    1   18    7
 -8.302331805951962e-14    2    1   18    8
 8.54620194615824e-14    2    1   18    9
 1.961312488700071e-12    2    1   18   10
 1.773042304872496e-05    2    1   18   11
 2.936864705920847e-05    2    1   18   12
 8.660650454293802e-06    2    1   18   13
 1.776236356872927e-11    2    1   18   14
 -1.195266389011971e-05    2    1   18   15
 -1.763564679609424e-11    2    1   18   16
 7.268724525098419e-12    2    1   18   17
 2.138721699904989e-10    2    1   18   18
 0.5047534680856883    2    2    1    1
 5.998812963477802e-11    2    2    2    1
 0.5830191826270505    2    2    2    2
 1.266158004641391e-10    2    2    3    1
 4.19182042157315e-10    2    2    3    2
 0.5220201867376942    2    2    3    3
 4.628111234552224e-10    2    2    4    1
 0.03615493840018474    2    2    4    2
 2.843231677743844e-09    2    2    4    3
 0.7202450743969198    2    2    4    4
 -0.0007938153939651963    2    2    5    1
 2.396300801857791e-11    2    2    5    2
 4.533287170861194e-10    2    2    5    3
 1.756251765866293e-10    2    2    5    4
 0.6026102351804788    2    2    5    5
 -2.577976743585248e-10    2    2    6    1
 3.808693853219833e-10    2    2    6    2
 -0.05467792225433076    2    2    6    3
 1.228798685382824e-09    2    2    6    4
 -6.455071473283029e-10    2    2    6    5
 0.6687657913532327    2    2    6    6
 0.001170561455282416    2    2    7    1
 1.117284267265703e-11    2    2    7    2
 7.491467158185703e-11    2    2    7    3
 -1.630766360665934e-11    2    2    7    4
 -0.06822457298482869    2    2    7    5
 -6.158261872543217e-10    2    2    7    6
 0.6384788301221953    2    2    7    7
 -0.008768033530661632    2    2    8    1
 -9.060068437429164e-11    2    2    8    2
 -3.915635635318782e-10    2    2    8    3
 6.471747619517145e-10    2    2    8    4
 0.005876251947205333    2    2    8    5
 -9.041393454869294e-11    2    2    8    6
 -0.006824893356685279    2    2    8    7
 0.7467866778474598    2    2    8    8
 0.008872798252306023    2    2    9    1
 9.244171282208822e-11    2    2    9    2
 3.949700459287501e-10    2    2    9    3
 -6.663508675096015e-10    2    2    9    4
 0.00734677022240426    2    2    9    5
 2.125374192988325e-10    2    2    9    6
 -0.006572255966751873    2    2    9    7
 0.06146217801387071    2    2    9    8
 0.7482939027452525    2    2    9    9
 8.725247879352041e-05    2    2   10    1
 4.101353948038737e-12    2    2   10    2
 3.897882987072653e-12    2    2   10    3
 -1.412670442087721e-12    2    2   10    4
 1.853276178305758e-06    2    2   10    5
 1.450596078020053e-12    2    2   10    6
 -2.101482827756251e-05    2    2   10    7
 -8.039059371687775e-06    2    2   10    8
 2.539870635911852e-06    2    2   10    9
 0.1569463319713497    2    2   10   10
 9.175024939143136e-13    2    2   11    1
 5.236554499982727e-06    2    2   11    2
 -5.230026761959753e-06    2    2   11    3
 -1.576017908239067e-06    2    2   11    4
 7.799572534180264e-14    2    2   11    5
 -2.091667692344999e-06    2    2   11    6
 -1.863683826216153e-13    2    2   11    7
 -1.014090020533121e-13    2    2   11    8
 4.590310143518384e-14    2    2   11    9
 7.852626225087927e-11    2    2   11   10
 0.150486394011091    2    2   11   11
 6.103946122473181e-13    2    2   12    1
 8.531905586573845e-06    2    2   12    2
 3.323945296782096e-06    2    2   12    3
 -2.515685698198916e-06    2    2   12    4
 8.231023310938307e-14    2    2   12    5
 1.296494732281916e-06    2    2   12    6
 -2.380008200854447e-13    2    2   12    7
 -1.42478737742989e-13    2    2   12    8
 6.90584363437194e-14    2    2   12    9
 1.037836811486818e-10    2    2   12   10
 9.350361966110226e-05    2    2   12   11
 0.1506304132212911    2    2   12   12
 -2.314020151883019e-13    2    2   13    1
 1.255390162036146e-06    2    2   13    2
 -1.816516355235695e-06    2    2   13    3
 1.004872459157136e-07    2    2   13    4
 -1.250787104909843e-14    2    2   13    5
 5.233813038376116e-08    2    2   13    6
 6.800916689158582e-14    2    2   13    7
 3.149464966775303e-14    2    2   13    8
 -1.282380492312926e-14    2    2   13    9
 -1.809966138858254e-11    2    2   13   10
 0.0003315709623102796    2    2   13   11
 -1.328367089454583e-05    2    2   13   12
 0.1522690074794276    2    2   13   13
 7.561622046444382e-05    2    2   14    1
 2.918657105476419e-12    2    2   14    2
 3.375743058055508e-12    2    2   14    3
 -9.661058921742594e-13    2    2   14    4
 -1.631472486241706e-05    2    2   14    5
 1.087607675026393e-12    2    2   14    6
 -1.45283517031762e-05    2    2   14    7
 1.207959046705275e-05    2    2   14    8
 -1.334807544884005e-05    2    2   14    9
 0.01698339500171416    2    2   14   10
 1.987770796010591e-10    2    2   14   11
 2.701255611539669e-10    2    2   14   12
 -5.856275784182986e-11    2    2   14   13
 0.1519191911235533    2    2   14   14
 3.58652578821104e-13    2    2   15    1
 -1.4420430898445e-06    2    2   15    2
 -9.071637049092767e-07    2    2   15    3
 -3.328197369939651e-07    2    2   15    4
 4.903246511599045e-14    2    2   15    5
 1.207618999553336e-07    2    2   15    6
 -7.52926302312536e-14    2    2   15    7
 -7.095463435525967e-14    2    2   15    8
 4.481779916351909e-14    2    2   15    9
 1.45101162244427e-12    2    2   15   10
 2.085347709854476e-05    2    2   15   11
 -0.0004298283204275634    2    2   15   12
 -1.787558669067384e-05    2    2   15   13
 9.231836066530769e-11    2    2   15   14
 0.1522348994781666    2    2   15   15
 2.86464850816329e-05    2    2   16    1
 1.152714800527523e-12    2    2   16    2
 1.278869342394782e-12    2    2   16    3
 -3.896924978549261e-13    2    2   16    4
 -4.473891553654478e-06    2    2   16    5
 4.277420277153439e-13    2    2   16    6
 -5.874815690561876e-06    2    2   16    7
 2.084901447748116e-06    2    2   16    8
 -2.93069591636312e-06    2    2   16    9
 0.01299636967165901    2    2   16   10
 1.474993304881175e-10    2    2   16   11
 1.984772261929754e-10    2    2   16   12
 -5.877530676370031e-11    2    2   16   13
 0.0009110300249667621    2    2   16   14
 9.050471843342953e-11    2    2   16   15
 0.1515752591874837    2    2   16   16
 4.844060068720484e-05    2    2   17    1
 1.949717695774133e-12    2    2   17    2
 2.162807431738158e-12    2    2   17    3
 -6.429561702959862e-13    2    2   17    4
 -9.431515954416986e-06    2    2   17    5
 7.059213414995804e-13    2    2   17    6
 -9.959318226002726e-06    2    2   17    7
 6.87807682456804e-06    2    2   17    8
 -7.855449436474529e-06    2    2   17    9
 0.0003956288604535473    2    2   17   10
 6.525879124663697e-12    2    2   17   11
 8.989759234933486e-12    2    2   17   12
 3.349184068904676e-12    2    2   17   13
 0.003945337935649218    2    2   17   14
 -1.231283831156451e-11    2    2   17   15
 -0.00385778699534146    2    2   17   16
 0.1555607404749376    2    2   17   17
 4.529172608990632e-05    2    2   18    1
 1.841723048208714e-12    2    2   18    2
 2.022118818654683e-12    2    2   18    3
 -6.075828427715062e-13    2    2   18    4
 -8.555258648572004e-06    2    2   18    5
 6.624180311064879e-13    2    2   18    6
 -9.389078596147337e-06    2    2   18    7
 6.183531213396584e-06    2    2   18    8
 -7.161286233187331e-06    2    2   18    9
 0.0001567037061421458    2    2   18   10
 2.682717953319754e-12    2    2   18   11
 3.108751093839322e-12    2    2   18   12
 1.049164397090012e-12    2    2   18   13
 0.004141817662175386    2    2   18   14
 -9.08086792867239e-12    2    2   18   15
 -0.004124157330792293    2    2   18   16
 0.001288733288158941    2    2   18   17
 0.1522920133302717    2    2   18   18
 3.562585017001798e-10    3    1    1    1
 -1.34919954561895e-10    3    1    2    1
 1.266158004641503e-10    3    1    2    2
 0.03214610542962396    3    1    3    1
 -5.012661093430317e-11    3    1    3    2
 -7.733930799877235e-11    3    1    3    3
 -4.368390184667666e-10    3    1    4    1
 -2.454518554147692e-10    3    1    4    2
 -1.578578796314329e-10    3    1    4    3
 -3.277201903141613e-11    3    1    4    4
 -1.496321654774509e-10    3    1    5    1
 8.018033163495662e-13    3    1    5    2
 0.0003147916707462485    3    1    5    3
 7.619802579297673e-13    3    1    5    4
 8.433258566737281e-11    3    1    5    5
 0.01337202987533515    3    1    6    1
 1.201249498479065e-10    3    1    6    2
 6.949063277109029e-10    3    1    6    3
 3.613482181006381e-10    3    1    6    4
 -0.0007981082108364788    3    1    6    5
 -1.253822009227204e-09    3    1    6    6
 1.196563213208706e-11    3    1    7    1
 -1.182223451556461e-12    3    1    7    2
 -0.0004644691235134998    3    1    7    3
 -1.122433043401239e-12    3    1    7    4
 1.714569820740456e-10    3    1    7    5
 0.001177247689276069    3    1    7    6
 3.370831798119814e-10    3    1    7    7
 -1.963208062877636e-10    3    1    8    1
 8.856143165618742e-12    3    1    8    2
 0.003478619447222701    3    1    8    3
 8.412283909636751e-12    3    1    8    4
 2.871826874926419e-11    3    1    8    5
 -0.008817755614442197    3    1    8    6
 5.454793990567517e-11    3    1    8    7
 -2.920518711767118e-10    3    1    8    8
 1.989923703916416e-10    3    1    9    1
 -8.961923347056912e-12    3    1    9    2
 -0.003520176397871301    3    1    9    3
 -8.512665242276171e-12    3    1    9    4
 -2.573744510259481e-10    3    1    9    5
 0.008923102692921131    3    1    9    6
 1.769393558670473e-10    3    1    9    7
 -1.526409485734041e-09    3    1    9    8
 -3.11921598657015e-10    3    1    9    9
 -1.879272165044862e-12    3    1   10    1
 -1.177823041370788e-13    3    1   10    2
 2.649683144235721e-05    3    1   10    3
 -3.563090436391832e-13    3    1   10    4
 1.173980030288837e-12    3    1   10    5
 1.0778666446364e-05    3    1   10    6
 7.339205318357788e-13    3    1   10    7
 -7.837195822236852e-13    3    1   10    8
 8.13954629907804e-13    3    1   10    9
 3.833103862282393e-10    3    1   10   10
 1.687751688479403e-06    3    1   11    1
 -3.456909375655516e-15    3    1   11    2
 6.159736236809486e-13    3    1   11    3
 -3.050296164222769e-14    3    1   11    4
 -1.13036756322888e-06    3    1   11    5
 1.803494107434264e-13    3    1   11    6
 -7.015933018309326e-07    3    1   11    7
 5.251302356630851e-07    3    1   11    8
 -5.304837581287099e-07    3    1   11    9
 -0.0003506778950597159    3    1   11   10
 2.879408180978559e-10    3    1   11   11
 -1.038732243742376e-06    3    1   12    1
 -2.204969842988572e-13    3    1   12    2
 7.59342008210651e-14    3    1   12    3
 2.01809136936233e-14    3    1   12    4
 7.001389154771771e-07    3    1   12    5
 7.547996238259367e-14    3    1   12    6
 4.34295991315047e-07    3    1   12    7
 -3.250686719800002e-07    3    1   12    8
 3.283494217723378e-07    3    1   12    9
 0.0002147449215306391    3    1   12   10
 3.402964425907059e-12    3    1   12   11
 2.99929439248606e-10    3    1   12   12
 -2.175948967862515e-07    3    1   13    1
 2.504343458062153e-15    3    1   13    2
 -1.003703718953791e-13    3    1   13    3
 4.026717030873581e-08    3    1   13    5
 -3.997028886525958e-14    3    1   13    6
 3.125438019192103e-08    3    1   13    7
 -2.325664627454831e-08    3    1   13    8
 2.428082036065083e-08    3    1   13    9
 7.082661289763365e-05    3    1   13   10
 6.096956383258579e-12    3    1   13   11
 -5.153749771268893e-13    3    1   13   12
 3.178314204017355e-10    3    1   13   13
 -1.870686692193949e-13    3    1   14    1
 -4.543654187688477e-14    3    1   14    2
 1.073322861538214e-05    3    1   14    3
 -1.423209908436662e-13    3    1   14    4
 2.324035184620023e-13    3    1   14    5
 3.916568101975893e-06    3    1   14    6
 1.504938558496641e-13    3    1   14    7
 -1.720698353364153e-13    3    1   14    8
 1.825711643380038e-13    3    1   14    9
 1.119455892415017e-10    3    1   14   10
 -0.0007058777031798693    3    1   14   11
 0.0004384746987703279    3    1   14   12
 -4.731373445556835e-06    3    1   14   13
 3.188944086994232e-10    3    1   14   14
 -2.063240974548739e-07    3    1   15    1
 -2.646614824724283e-14    3    1   15    2
 9.498416823056388e-14    3    1   15    3
 3.837881360757107e-15    3    1   15    4
 7.270158414649396e-08    3    1   15    5
 4.241562158072674e-14    3    1   15    6
 4.901191736182338e-08    3    1   15    7
 -3.659967671903508e-08    3    1   15    8
 3.746149123917825e-08    3    1   15    9
 5.877392257163514e-05    3    1   15   10
 1.497818809194777e-12    3    1   15   11
 -5.159714467113817e-12    3    1   15   12
 -8.898433507420875e-13    3    1   15   13
 2.684938461194917e-05    3    1   15   14
 3.179038619767967e-10    3    1   15   15
 -2.04863518281162e-13    3    1   16    1
 -2.092341175025211e-14    3    1   16    2
 4.791556542079701e-06    3    1   16    3
 -6.420782441057645e-14    3    1   16    4
 1.501155371664512e-13    3    1   16    5
 1.892571083821629e-06    3    1   16    6
 9.843384386190795e-14    3    1   16    7
 -1.068984282131967e-13    3    1   16    8
 1.123841677092445e-13    3    1   16    9
 8.617785134925149e-11    3    1   16   10
 -0.0004174325570787679    3    1   16   11
 0.0002433350632584984    3    1   16   12
 0.0003755145188806849    3    1   16   13
 6.405870283077546e-12    3    1   16   14
 0.0002507696858936197    3    1   16   15
 3.163453369351663e-10    3    1   16   16
 -2.077203595740908e-13    3    1   17    1
 -3.455745208133879e-14    3    1   17    2
 8.137140580453926e-06    3    1   17    3
 -1.079012134821459e-13    3    1   17    4
 2.169502229189804e-13    3    1   17    5
 2.976010590012615e-06    3    1   17    6
 1.331235183381692e-13    3    1   17    7
 -1.505165605496458e-13    3    1   17    8
 1.579529780123366e-13    3    1   17    9
 5.23538931849439e-12    3    1   17   10
 -6.576719484151403e-05    3    1   17   11
 4.496429459042258e-05    3    1   17   12
 -9.786707359632539e-05    3    1   17   13
 2.545352992237859e-11    3    1   17   14
 -5.79897669850437e-05    3    1   17   15
 -2.486170336704125e-11    3    1   17   16
 3.448832743422241e-10    3    1   17   17
 -2.255623413029255e-13    3    1   18    1
 -3.364842690816243e-14    3    1   18    2
 7.905973724469692e-06    3    1   18    3
 -1.048831881381904e-13    3    1   18    4
 2.203221716766893e-13    3    1   18    5
 2.902932100633816e-06    3    1   18    6
 1.348415724026635e-13    3    1   18    7
 -1.520354404724748e-13    3    1   18    8
 1.593409647651657e-13    3    1   18    9
 3.711711698293107e-12    3    1   18   10
 -2.803480238447508e-05    3    1   18   11
 1.798449960119316e-05    3    1   18   12
 -1.369396708294747e-05    3    1   18   13
 2.681648109444409e-11    3    1   18   14
 -7.319468262386671e-06    3    1   18   15
 -2.660206796884516e-11    3    1   18   16
 1.095578368338155e-11    3    1   18   17
 3.235912830292863e-10    3    1   18   18
 2.441009059634591e-10    3    2    1    1
 -6.408898222103873e-11    3    2    2    1
 4.191820583726833e-10    3    2    2    2
 -5.012661093430428e-11    3    2    3    1
 0.0332012566112798    3    2    3    2
 5.797350643066247e-10    3    2    3    3
 -5.398115794916498e-11    3    2    4    1
 5.317461441978365e-10    3    2    4    2
 -0.001808756613552095    3    2    4    3
 3.224635499895472e-09    3    2    4    4
 4.164910663939499e-12    3    2    5    1
 -5.445299548795813e-11    3    2    5    2