[Molden Format]
made by pyscf v[2.0.1]
[Atoms] (AU)
Ne   1   10     0.00000000000000     0.00000000000000     0.00000000000000
Ne   2   10     6.45192855917628     0.00000000000000     0.00000000000000
[GTO]
1 0
 s    6 1.00
            8425.85153  0.0018843481002271
             1268.5194   0.014336899401728
            289.621414    0.07010962330845
             81.859004    0.23737326602861
            26.2515079    0.47300712605701
            9.09472051    0.34840124104199
 s    3 1.00
             26.532131   -0.10711828724221
            6.10175501   -0.14616382133049
            1.69627153       1.12777350255
 s    1 1.00
             0.4458187                   1
 p    3 1.00
             26.532131   0.071909588506007
            6.10175501     0.3495133720292
            1.69627153    0.71994051206015
 p    1 1.00
             0.4458187                   1

2 0
 s    6 1.00
            8425.85153  0.0018843481002271
             1268.5194   0.014336899401728
            289.621414    0.07010962330845
             81.859004    0.23737326602861
            26.2515079    0.47300712605701
            9.09472051    0.34840124104199
 s    3 1.00
             26.532131   -0.10711828724221
            6.10175501   -0.14616382133049
            1.69627153       1.12777350255
 s    1 1.00
             0.4458187                   1
 p    3 1.00
             26.532131   0.071909588506007
            6.10175501     0.3495133720292
            1.69627153    0.71994051206015
 p    1 1.00
             0.4458187                   1

[5d]
[7f]
[9g]

[MO]
 Sym= A
 Ene=               0
 Spin= Alpha
 Occup=    1.00000
   1       1.0250591466414
   2     -0.12611270154875
   3    -0.015599231123313
   4    -1.14078659142e-09
   5    -1.7458338553165e-17
   6    9.4058822545539e-18
   7    6.4965182164405e-10
   8    -1.0314884950027e-20
   9    -2.0276283453778e-19
  10    -5.0055636976373e-08
  11    2.2335010317308e-07
  12    1.7599522062372e-07
  13    7.1588700709337e-08
  14    1.1993206129835e-24
  15    -5.5450196801359e-23
  16    -1.9250950678557e-06
  17    -3.096670999109e-23
  18    -6.7193589302301e-23
 Sym= A
 Ene=               1
 Spin= Alpha
 Occup=    1.00000
   1     -0.12611270154875
   2       1.4198956753338
   3     -0.64079875307524
   4    2.3075755945797e-07
   5    1.9877299961865e-17
   6    -8.5966493239707e-17
   7    -5.1293792933828e-07
   8    9.0157091419981e-19
   9    6.008667325421e-19
  10    2.233501030654e-07
  11    -6.3765824455416e-05
  12    9.3049797653938e-05
  13    0.00011202707564541
  14    1.7776247824088e-20
  15    6.8879973575552e-22
  16    -0.0002578895060284
  17    -6.5495450674298e-21
  18    -2.0818123153867e-21
 Sym= A
 Ene=               2
 Spin= Alpha
 Occup=    1.00000
   1    -0.015599231123313
   2     -0.64079875307524
   3       1.3964502218044
   4    -3.3239889098713e-07
   5    -3.3546344297455e-17
   6    8.3733679512522e-17
   7    7.5865939496821e-07
   8    -1.0178657422783e-18
   9    -9.6027195578346e-19
  10    1.7599522069618e-07
  11    9.3049797654276e-05
  12    -0.00014257407386567
  13    -0.00016776316634697
  14    -2.578153640614e-20
  15    -8.4657663350925e-22
  16    0.00041196579947795
  17    9.6026516765457e-21
  18    3.217636775955e-21
 Sym= A
 Ene=               3
 Spin= Alpha
 Occup=    1.00000
   1    -1.1407865913985e-09
   2    2.3075755945791e-07
   3    -3.3239889098709e-07
   4       1.1114029565275
   5    -1.788962212838e-17
   6    -2.9127678363557e-17
   7     -0.29299004735765
   8    4.5258708100927e-17
   9    1.2224069244931e-16
  10    -7.1588700762301e-08
  11    -0.00011202707564538
  12    0.00016776316634696
  13    0.00018992524712772
  14    -6.4653548012037e-18
  15    1.2642553872545e-17
  16    -0.00045097557651854
  17    1.1055832432173e-17
  18    -1.670554593127e-17
 Sym= A
 Ene=               4
 Spin= Alpha
 Occup=    1.00000
   1    -1.7458338553165e-17
   2    1.9877299961865e-17
   3    -3.3546344297455e-17
   4    -1.7889622128416e-17
   5       1.1114025741241
   6    -6.486413406792e-16
   7    -5.9551945234491e-17
   8     -0.29298918229017
   9    7.9902314014445e-16
  10    1.1831409814275e-17
  11    -1.1174636098163e-16
  12    5.6558519376117e-17
  13    1.2180517377388e-16
  14    -1.0878580541973e-05
  15    2.8514256370407e-17
  16    -1.7551943052012e-16
  17    2.5776667001742e-05
  18    -5.439364865692e-17
 Sym= A
 Ene=               5
 Spin= Alpha
 Occup=    1.00000
   1    9.4058822545539e-18
   2    -8.5966493239707e-17
   3    8.3733679512522e-17
   4    -2.9127678363565e-17
   5    -6.2178303272559e-16
   6       1.1114025741241
   7    -4.0879418433545e-17
   8    5.5507600333491e-16
   9     -0.29298918229017
  10    -8.5280959074538e-17
  11    -3.7336609219963e-17
  12    -1.1309192894592e-17
  13    -4.1624034231767e-17
  14    3.4633598745099e-16
  15    -1.0878580541684e-05
  16    4.8291222803606e-17
  17    -2.6042085245568e-16
  18    2.5776667001356e-05
 Sym= A
 Ene=               6
 Spin= Alpha
 Occup=    1.00000
   1    6.4965182165417e-10
   2    -5.1293792933831e-07
   3    7.5865939496815e-07
   4     -0.29299004735765
   5    -5.9551945234519e-17
   6    -4.0879418433585e-17
   7       1.1114046030138
   8    -5.0248266067334e-17
   9    1.5890741511333e-16
  10    1.9250950679376e-06
  11    0.00025788950602854
  12    -0.00041196579947804
  13    -0.0004509755765182
  14    -2.0577101402673e-17
  15    -7.006044605786e-17
  16    0.0011640789847386
  17    -8.8826127931393e-19
  18    2.9856108938691e-17
 Sym= A
 Ene=               7
 Spin= Alpha
 Occup=    1.00000
   1    -1.0314884950023e-20
   2    9.015709141998e-19
   3    -1.0178657422783e-18
   4    4.5258708100934e-17
   5     -0.29298918229017
   6    6.0697501235895e-16
   7    -5.0248266067338e-17
   8       1.1114025790254
   9    -6.8882573310455e-16
  10    -7.570736234532e-17
  11    -2.436863895876e-17
  12    9.3071169234479e-17
  13    -6.250142483982e-18
  14    2.5776667001529e-05
  15    -2.2734477666387e-16
  16    -5.257869592724e-18
  17    -6.6359606239036e-05
  18    2.075664457137e-16
 Sym= A
 Ene=               8
 Spin= Alpha
 Occup=    1.00000
   1    -2.0276283453782e-19
   2    6.0086673254208e-19
   3    -9.6027195578348e-19
   4    1.2224069244931e-16
   5    7.9161149361271e-16
   6     -0.29298918229017
   7    1.5890741511333e-16
   8    -6.5703303306852e-16
   9       1.1114025790254
  10    4.1283647177758e-18
  11    1.3489573625428e-17
  12    1.4930880229375e-17
  13    8.0759363061232e-17
  14    -1.6079971800313e-16
  15    2.5776667001399e-05
  16    3.467409456214e-17
  17    1.6658125252969e-16
  18    -6.6359606238532e-05
 Sym= A
 Ene=               9
 Spin= Alpha
 Occup=    1.00000
   1    -5.0055636939371e-08
   2    2.2335010304626e-07
   3    1.7599522069212e-07
   4    -7.1588700762294e-08
   5    1.1831409814275e-17
   6    -8.5280959074538e-17
   7    1.9250950679376e-06
   8    -7.570736234532e-17
   9    4.1283647177759e-18
  10       1.0250591466414
  11     -0.12611270154875
  12    -0.015599231123311
  13    1.1407860333284e-09
  14    -2.1933294158611e-17
  15    -1.9466125324362e-17
  16    -6.4965135295049e-10
  17    -2.4686078765596e-17
  18    1.471673201647e-17
 Sym= A
 Ene=              10
 Spin= Alpha
 Occup=    0.00000
   1    2.2335010312993e-07
   2    -6.3765824455356e-05
   3    9.3049797654172e-05
   4    -0.00011202707564538
   5    -1.1174636098163e-16
   6    -3.7336609219963e-17
   7    0.00025788950602854
   8    -2.436863895876e-17
   9    1.3489573625428e-17
  10     -0.12611270154875
  11       1.4198956753338
  12     -0.64079875307524
  13    -2.3075756058007e-07
  14    -3.0739157406591e-17
  15    -4.1454971524243e-17
  16    5.1293792980899e-07
  17    -5.3684321732316e-19
  18     4.95434059899e-17
 Sym= A
 Ene=              11
 Spin= Alpha
 Occup=    0.00000
   1    1.7599522059864e-07
   2    9.3049797653951e-05
   3    -0.00014257407386571
   4    0.00016776316634696
   5    5.6558519376117e-17
   6    -1.1309192894592e-17
   7    -0.00041196579947804
   8    9.3071169234479e-17
   9    1.4930880229375e-17
  10    -0.015599231123311
  11     -0.64079875307524
  12       1.3964502218044
  13    3.3239889096558e-07
  14    -1.5914361054425e-17
  15    7.811162773217e-18
  16    -7.5865939562398e-07
  17    -1.8210380394186e-18
  18    -1.0390977427837e-17
 Sym= A
 Ene=              12
 Spin= Alpha
 Occup=    0.00000
   1    7.1588700709352e-08
   2    0.00011202707564541
   3    -0.00016776316634697
   4    0.00018992524712766
   5    1.2180517377387e-16
   6    -4.1624034231761e-17
   7    -0.00045097557651819
   8    -6.250142483978e-18
   9    8.0759363061221e-17
  10    1.1407860333515e-09
  11    -2.3075756058016e-07
  12    3.3239889096556e-07
  13       1.1114029565275
  14    6.8605339460656e-17
  15    -1.5271943941656e-17
  16     -0.29299004735769
  17    -3.3340817159622e-17
  18    7.1086644751088e-18
 Sym= A
 Ene=              13
 Spin= Alpha
 Occup=    0.00000
   1    1.1993206115411e-24
   2    1.7776247824087e-20
   3    -2.5781536406141e-20
   4    -6.4653548012065e-18
   5    -1.0878580541979e-05
   6    3.5878423213405e-16
   7    -2.0577101402663e-17
   8    2.5776667001582e-05
   9    -1.6265333946482e-16
  10    -2.1933294158611e-17
  11    -3.0739157406591e-17
  12    -1.5914361054425e-17
  13    6.8605339460661e-17
  14       1.1114025741241
  15    -1.9224439336804e-16
  16    -4.048534300469e-17
  17     -0.29298918229017
  18    1.4966404603003e-16
 Sym= A
 Ene=              14
 Spin= Alpha
 Occup=    0.00000
   1    -5.5450196801754e-23
   2    6.8879973576009e-22
   3    -8.4657663350573e-22
   4    1.2642553872558e-17
   5    2.4701381295114e-17
   6    -1.0878580541645e-05
   7    -7.0060446057855e-17
   8    -2.3358675482712e-16
   9    2.5776667001389e-05
  10    -1.9466125324362e-17
  11    -4.1454971524243e-17
  12    7.8111627732171e-18
  13    -1.5271943941641e-17
  14    -1.8679156375272e-16
  15       1.1114025741241
  16    1.2111072790963e-18
  17    1.097116697732e-16
  18     -0.29298918229017
 Sym= A
 Ene=              15
 Spin= Alpha
 Occup=    0.00000
   1    -1.9250950678556e-06
   2    -0.0002578895060284
   3    0.00041196579947795
   4    -0.00045097557651854
   5    -1.7551943052015e-16
   6    4.8291222803603e-17
   7    0.0011640789847387
   8    -5.2578695927169e-18
   9    3.4674094562138e-17
  10    -6.4965135295988e-10
  11    5.1293792980905e-07
  12    -7.5865939562396e-07
  13     -0.29299004735769
  14    -4.0485343004691e-17
  15    1.2111072790979e-18
  16       1.1114046030138
  17    1.3651160043483e-17
  18    2.9464350611157e-18
 Sym= A
 Ene=              16
 Spin= Alpha
 Occup=    0.00000
   1    -3.096670999203e-23
   2    -6.5495450674299e-21
   3    9.6026516765469e-21
   4    1.1055832432167e-17
   5    2.577666700181e-05
   6    -2.9102493820259e-16
   7    -8.8826127931263e-19
   8    -6.6359606239045e-05
   9    1.5636828157382e-16
  10    -2.4686078765596e-17
  11    -5.3684321732315e-19
  12    -1.8210380394185e-18
  13    -3.3340817159623e-17
  14     -0.29298918229017
  15    1.0283949220451e-16
  16    1.3651160043478e-17
  17       1.1114025790254
  18    -2.1011823168078e-16
 Sym= A
 Ene=              17
 Spin= Alpha
 Occup=    0.00000
   1    -6.7193589302924e-23
   2    -2.0818123153887e-21
   3    3.2176367759522e-21
   4    -1.6705545931289e-17
   5    -3.811787446104e-17
   6    2.5776667001282e-05
   7    2.9856108938708e-17
   8    2.0753503005095e-16
   9    -6.6359606238516e-05
  10    1.471673201647e-17
  11     4.95434059899e-17
  12    -1.0390977427837e-17
  13    7.1086644751172e-18
  14    1.6132730041149e-16
  15     -0.29298918229017
  16    2.9464350611134e-18
  17    -1.9703490690408e-16
  18       1.1114025790254
